<?xml version="1.0" encoding="UTF-8"?>

<!-- generated on 2025-07-03 11:52:14 by Eclipse SUMO GUI Version 1.18.0
<configuration xmlns:xsi="http://www.w3.org/2001/XMLSchema-instance" xsi:noNamespaceSchemaLocation="http://sumo.dlr.de/xsd/sumoConfiguration.xsd">

    <input>
        <net-file value="env/custom_env/data/1ramp_1x3/1ramp_1x3.net.xml"/>
        <route-files value="env/custom_env/data/1ramp_1x3/1ramp_1x3.rou.xml"/>
        <additional-files value="env/custom_env/data/1ramp_1x3/1ramp_1x3.add.xml"/>
    </input>

    <output>
        <tripinfo-output value="env/custom_env/data/1ramp_1x3/tripinfo.xml"/>
    </output>

    <time>
        <begin value="0"/>
    </time>

    <processing>
        <time-to-teleport value="3600"/>
        <waiting-time-memory value="3600"/>
    </processing>

    <routing>
        <device.rerouting.probability value="0"/>
    </routing>

    <report>
        <verbose value="true"/>
        <no-warnings value="true"/>
        <log value="log"/>
        <duration-log.statistics value="true"/>
        <no-step-log value="true"/>
    </report>

    <traci_server>
        <remote-port value="38913"/>
    </traci_server>

    <random_number>
        <seed value="42"/>
    </random_number>

    <gui_only>
        <gui-settings-file value="env/custom_env/data/1ramp_1x3/gui-settings.cfg"/>
        <quit-on-end value="false"/>
        <start value="true"/>
        <delay value="0"/>
    </gui_only>

</configuration>
-->

<tripinfos xmlns:xsi="http://www.w3.org/2001/XMLSchema-instance" xsi:noNamespaceSchemaLocation="http://sumo.dlr.de/xsd/tripinfo_file.xsd">
    <tripinfo id="on_ramp_con.0" depart="0.00" departLane="on_ramp_0" departPos="194.36" departSpeed="16.14" departDelay="0.00" arrival="21.00" arrivalLane="end_main_road_0" arrivalPos="193.07" arrivalSpeed="30.47" duration="21.00" routeLength="474.63" waitingTime="0.00" waitingCount="0" stopTime="0.00" timeLoss="2.87" rerouteNo="0" devices="tripinfo_on_ramp_con.0" vType="con" speedFactor="1.16" vaporized=""/>
    <tripinfo id="off_ramp_def.0" depart="0.00" departLane="entry_0" departPos="175.93" departSpeed="30.13" departDelay="0.00" arrival="25.00" arrivalLane="off_ramp_0" arrivalPos="161.26" arrivalSpeed="12.83" duration="25.00" routeLength="420.55" waitingTime="0.00" waitingCount="0" stopTime="0.00" timeLoss="2.17" rerouteNo="0" devices="tripinfo_off_ramp_def.0" vType="def" speedFactor="1.08" vaporized=""/>
    <tripinfo id="off_ramp_con.0" depart="0.00" departLane="entry_0" departPos="165.17" departSpeed="25.86" departDelay="0.00" arrival="29.00" arrivalLane="off_ramp_0" arrivalPos="161.26" arrivalSpeed="12.43" duration="29.00" routeLength="431.31" waitingTime="0.00" waitingCount="0" stopTime="0.00" timeLoss="2.24" rerouteNo="0" devices="tripinfo_off_ramp_con.0" vType="con" speedFactor="0.93" vaporized=""/>
    <tripinfo id="on_ramp_con.1" depart="5.00" departLane="on_ramp_0" departPos="177.08" departSpeed="13.00" departDelay="0.50" arrival="33.00" arrivalLane="end_main_road_0" arrivalPos="193.07" arrivalSpeed="24.26" duration="28.00" routeLength="491.91" waitingTime="0.00" waitingCount="0" stopTime="0.00" timeLoss="3.33" rerouteNo="0" devices="tripinfo_on_ramp_con.1" vType="con" speedFactor="0.94" vaporized=""/>
    <tripinfo id="on_ramp_def.2" depart="7.00" departLane="on_ramp_0" departPos="144.76" departSpeed="13.91" departDelay="0.45" arrival="35.00" arrivalLane="end_main_road_0" arrivalPos="193.07" arrivalSpeed="25.57" duration="28.00" routeLength="524.23" waitingTime="0.00" waitingCount="0" stopTime="0.00" timeLoss="2.89" rerouteNo="0" devices="tripinfo_on_ramp_def.2" vType="def" speedFactor="1.00" vaporized=""/>
    <tripinfo id="main_def.0" depart="0.00" departLane="entry_1" departPos="179.73" departSpeed="29.77" departDelay="0.00" arrival="41.00" arrivalLane="end_main_road_1" arrivalPos="193.07" arrivalSpeed="28.79" duration="41.00" routeLength="1085.52" waitingTime="0.00" waitingCount="0" stopTime="0.00" timeLoss="2.10" rerouteNo="0" devices="tripinfo_main_def.0" vType="def" speedFactor="1.07" vaporized=""/>
    <tripinfo id="on_ramp_def.0" depart="0.00" departLane="on_ramp_0" departPos="37.50" departSpeed="12.24" departDelay="0.00" arrival="41.00" arrivalLane="end_main_road_0" arrivalPos="193.07" arrivalSpeed="24.40" duration="41.00" routeLength="631.49" waitingTime="0.00" waitingCount="0" stopTime="0.00" timeLoss="4.26" rerouteNo="0" devices="tripinfo_on_ramp_def.0" vType="def" speedFactor="0.88" vaporized=""/>
    <tripinfo id="main_def.1" depart="1.00" departLane="entry_2" departPos="135.08" departSpeed="28.59" departDelay="0.10" arrival="45.00" arrivalLane="end_main_road_2" arrivalPos="193.07" arrivalSpeed="26.44" duration="44.00" routeLength="1130.17" waitingTime="0.00" waitingCount="0" stopTime="0.00" timeLoss="2.22" rerouteNo="0" devices="tripinfo_main_def.1" vType="def" speedFactor="1.03" vaporized=""/>
    <tripinfo id="main_con.1" depart="2.00" departLane="entry_1" departPos="134.67" departSpeed="31.44" departDelay="0.20" arrival="46.00" arrivalLane="end_main_road_1" arrivalPos="193.07" arrivalSpeed="28.14" duration="44.00" routeLength="1130.58" waitingTime="0.00" waitingCount="0" stopTime="0.00" timeLoss="6.21" rerouteNo="0" devices="tripinfo_main_con.1" vType="con" speedFactor="1.13" vaporized=""/>
    <tripinfo id="main_def.5" depart="5.00" departLane="entry_2" departPos="103.62" departSpeed="32.31" departDelay="0.50" arrival="47.00" arrivalLane="end_main_road_2" arrivalPos="193.07" arrivalSpeed="27.46" duration="42.00" routeLength="1161.63" waitingTime="0.00" waitingCount="0" stopTime="0.00" timeLoss="3.71" rerouteNo="0" devices="tripinfo_main_def.5" vType="def" speedFactor="1.16" vaporized=""/>
    <tripinfo id="main_con.0" depart="0.00" departLane="entry_0" departPos="84.51" departSpeed="26.33" departDelay="0.00" arrival="50.00" arrivalLane="end_main_road_1" arrivalPos="193.07" arrivalSpeed="25.17" duration="50.00" routeLength="1180.74" waitingTime="0.00" waitingCount="0" stopTime="0.00" timeLoss="3.03" rerouteNo="0" devices="tripinfo_main_con.0" vType="con" speedFactor="0.95" vaporized=""/>
    <tripinfo id="on_ramp_def.1" depart="4.00" departLane="on_ramp_0" departPos="11.87" departSpeed="11.32" departDelay="0.73" arrival="51.00" arrivalLane="end_main_road_0" arrivalPos="193.07" arrivalSpeed="22.22" duration="47.00" routeLength="657.12" waitingTime="0.00" waitingCount="0" stopTime="0.00" timeLoss="4.80" rerouteNo="0" devices="tripinfo_on_ramp_def.1" vType="def" speedFactor="0.82" vaporized=""/>
    <tripinfo id="on_ramp_def.4" depart="14.00" departLane="on_ramp_0" departPos="59.54" departSpeed="14.76" departDelay="0.91" arrival="52.00" arrivalLane="end_main_road_1" arrivalPos="193.07" arrivalSpeed="29.01" duration="38.00" routeLength="609.45" waitingTime="0.00" waitingCount="0" stopTime="0.00" timeLoss="10.79" rerouteNo="0" devices="tripinfo_on_ramp_def.4" vType="def" speedFactor="1.15" vaporized=""/>
    <tripinfo id="main_con.2" depart="4.00" departLane="entry_2" departPos="35.20" departSpeed="27.80" departDelay="0.40" arrival="53.00" arrivalLane="end_main_road_2" arrivalPos="193.07" arrivalSpeed="25.92" duration="49.00" routeLength="1230.05" waitingTime="0.00" waitingCount="0" stopTime="0.00" timeLoss="2.48" rerouteNo="0" devices="tripinfo_main_con.2" vType="con" speedFactor="1.00" vaporized=""/>
    <tripinfo id="on_ramp_con.2" depart="10.00" departLane="on_ramp_0" departPos="43.41" departSpeed="13.47" departDelay="1.00" arrival="53.00" arrivalLane="end_main_road_0" arrivalPos="193.07" arrivalSpeed="26.34" duration="43.00" routeLength="625.58" waitingTime="0.00" waitingCount="0" stopTime="0.00" timeLoss="9.22" rerouteNo="0" devices="tripinfo_on_ramp_con.2" vType="con" speedFactor="0.97" vaporized=""/>
    <tripinfo id="off_ramp_con.1" depart="19.00" departLane="entry_0" departPos="10.48" departSpeed="27.50" departDelay="1.00" arrival="53.00" arrivalLane="off_ramp_0" arrivalPos="161.26" arrivalSpeed="13.39" duration="34.00" routeLength="586.00" waitingTime="0.00" waitingCount="0" stopTime="0.00" timeLoss="3.29" rerouteNo="0" devices="tripinfo_off_ramp_con.1" vType="con" speedFactor="0.99" vaporized=""/>
    <tripinfo id="main_con.4" depart="9.00" departLane="entry_2" departPos="4.64" departSpeed="34.44" departDelay="1.80" arrival="54.00" arrivalLane="end_main_road_2" arrivalPos="193.07" arrivalSpeed="29.69" duration="45.00" routeLength="1260.61" waitingTime="0.00" waitingCount="0" stopTime="0.00" timeLoss="6.85" rerouteNo="0" devices="tripinfo_main_con.4" vType="con" speedFactor="1.24" vaporized=""/>
    <tripinfo id="on_ramp_def.3" depart="10.00" departLane="on_ramp_0" departPos="0.16" departSpeed="13.05" departDelay="0.18" arrival="54.00" arrivalLane="end_main_road_0" arrivalPos="193.07" arrivalSpeed="25.77" duration="44.00" routeLength="668.83" waitingTime="0.00" waitingCount="0" stopTime="0.00" timeLoss="6.84" rerouteNo="0" devices="tripinfo_on_ramp_def.3" vType="def" speedFactor="0.94" vaporized=""/>
    <tripinfo id="on_ramp_con.3" depart="14.00" departLane="on_ramp_0" departPos="4.71" departSpeed="14.03" departDelay="0.50" arrival="56.00" arrivalLane="end_main_road_0" arrivalPos="193.07" arrivalSpeed="27.16" duration="42.00" routeLength="664.28" waitingTime="0.00" waitingCount="0" stopTime="0.00" timeLoss="7.32" rerouteNo="0" devices="tripinfo_on_ramp_con.3" vType="con" speedFactor="1.01" vaporized=""/>
    <tripinfo id="main_def.4" depart="4.00" departLane="entry_0" departPos="22.56" departSpeed="27.62" departDelay="0.40" arrival="57.00" arrivalLane="end_main_road_2" arrivalPos="193.07" arrivalSpeed="25.56" duration="53.00" routeLength="1242.69" waitingTime="0.00" waitingCount="0" stopTime="0.00" timeLoss="6.05" rerouteNo="0" devices="tripinfo_main_def.4" vType="def" speedFactor="0.99" vaporized=""/>
    <tripinfo id="main_def.2" depart="2.00" departLane="entry_1" departPos="35.20" departSpeed="24.51" departDelay="0.20" arrival="58.00" arrivalLane="end_main_road_1" arrivalPos="193.07" arrivalSpeed="22.37" duration="56.00" routeLength="1230.05" waitingTime="0.00" waitingCount="0" stopTime="0.00" timeLoss="3.28" rerouteNo="0" devices="tripinfo_main_def.2" vType="def" speedFactor="0.88" vaporized=""/>
    <tripinfo id="main_def.3" depart="3.00" departLane="entry_0" departPos="100.60" departSpeed="23.46" departDelay="0.30" arrival="59.00" arrivalLane="end_main_road_0" arrivalPos="193.07" arrivalSpeed="22.61" duration="56.00" routeLength="1164.65" waitingTime="0.00" waitingCount="0" stopTime="0.00" timeLoss="3.86" rerouteNo="0" devices="tripinfo_main_def.3" vType="def" speedFactor="0.84" vaporized=""/>
    <tripinfo id="main_def.10" depart="12.00" departLane="entry_2" departPos="41.38" departSpeed="31.14" departDelay="3.00" arrival="59.00" arrivalLane="end_main_road_2" arrivalPos="193.07" arrivalSpeed="31.00" duration="47.00" routeLength="1223.87" waitingTime="0.00" waitingCount="0" stopTime="0.00" timeLoss="5.24" rerouteNo="0" devices="tripinfo_main_def.10" vType="def" speedFactor="1.12" vaporized=""/>
    <tripinfo id="main_con.3" depart="6.00" departLane="entry_1" departPos="75.30" departSpeed="27.51" departDelay="0.60" arrival="60.00" arrivalLane="end_main_road_1" arrivalPos="193.07" arrivalSpeed="25.46" duration="54.00" routeLength="1189.95" waitingTime="0.00" waitingCount="0" stopTime="0.00" timeLoss="7.99" rerouteNo="0" devices="tripinfo_main_con.3" vType="con" speedFactor="0.99" vaporized=""/>
    <tripinfo id="main_def.13" depart="15.00" departLane="entry_2" departPos="118.41" departSpeed="27.27" departDelay="3.30" arrival="60.00" arrivalLane="end_main_road_2" arrivalPos="193.07" arrivalSpeed="29.90" duration="45.00" routeLength="1146.84" waitingTime="0.00" waitingCount="0" stopTime="0.00" timeLoss="4.50" rerouteNo="0" devices="tripinfo_main_def.13" vType="def" speedFactor="1.08" vaporized=""/>
    <tripinfo id="main_def.6" depart="6.00" departLane="entry_0" departPos="135.64" departSpeed="21.72" departDelay="0.60" arrival="61.00" arrivalLane="end_main_road_1" arrivalPos="193.07" arrivalSpeed="27.61" duration="55.00" routeLength="1129.61" waitingTime="0.00" waitingCount="0" stopTime="0.00" timeLoss="17.08" rerouteNo="0" devices="tripinfo_main_def.6" vType="def" speedFactor="1.13" vaporized=""/>
    <tripinfo id="on_ramp_def.7" depart="25.00" departLane="on_ramp_0" departPos="124.71" departSpeed="9.38" departDelay="2.09" arrival="61.00" arrivalLane="end_main_road_0" arrivalPos="193.07" arrivalSpeed="26.58" duration="36.00" routeLength="544.28" waitingTime="0.00" waitingCount="0" stopTime="0.00" timeLoss="11.29" rerouteNo="0" devices="tripinfo_on_ramp_def.7" vType="def" speedFactor="1.07" vaporized=""/>
    <tripinfo id="main_def.9" depart="11.00" departLane="entry_0" departPos="41.03" departSpeed="26.30" departDelay="2.90" arrival="62.00" arrivalLane="end_main_road_2" arrivalPos="193.07" arrivalSpeed="26.94" duration="51.00" routeLength="1224.22" waitingTime="0.00" waitingCount="0" stopTime="0.00" timeLoss="6.47" rerouteNo="0" devices="tripinfo_main_def.9" vType="def" speedFactor="1.05" vaporized=""/>
    <tripinfo id="main_con.9" depart="19.00" departLane="entry_2" departPos="116.03" departSpeed="29.33" departDelay="2.80" arrival="63.00" arrivalLane="end_main_road_2" arrivalPos="193.07" arrivalSpeed="28.40" duration="44.00" routeLength="1149.22" waitingTime="0.00" waitingCount="0" stopTime="0.00" timeLoss="2.90" rerouteNo="0" devices="tripinfo_main_con.9" vType="con" speedFactor="1.06" vaporized=""/>
    <tripinfo id="main_def.7" depart="7.00" departLane="entry_1" departPos="32.24" departSpeed="24.35" departDelay="0.70" arrival="64.00" arrivalLane="end_main_road_1" arrivalPos="193.07" arrivalSpeed="22.17" duration="57.00" routeLength="1233.01" waitingTime="0.00" waitingCount="0" stopTime="0.00" timeLoss="3.47" rerouteNo="0" devices="tripinfo_main_def.7" vType="def" speedFactor="0.88" vaporized=""/>
    <tripinfo id="on_ramp_def.5" depart="18.00" departLane="on_ramp_0" departPos="18.52" departSpeed="11.94" departDelay="1.64" arrival="64.00" arrivalLane="end_main_road_0" arrivalPos="193.07" arrivalSpeed="22.61" duration="46.00" routeLength="650.47" waitingTime="0.00" waitingCount="0" stopTime="0.00" timeLoss="6.37" rerouteNo="0" devices="tripinfo_on_ramp_def.5" vType="def" speedFactor="0.86" vaporized=""/>
    <tripinfo id="main_def.8" depart="9.00" departLane="entry_0" departPos="12.73" departSpeed="30.42" departDelay="1.80" arrival="65.00" arrivalLane="end_main_road_1" arrivalPos="193.07" arrivalSpeed="24.65" duration="56.00" routeLength="1252.52" waitingTime="0.00" waitingCount="0" stopTime="0.00" timeLoss="13.05" rerouteNo="0" devices="tripinfo_main_def.8" vType="def" speedFactor="1.10" vaporized=""/>
    <tripinfo id="main_def.14" depart="16.00" departLane="entry_1" departPos="31.48" departSpeed="26.07" departDelay="3.40" arrival="65.00" arrivalLane="end_main_road_2" arrivalPos="193.07" arrivalSpeed="29.33" duration="49.00" routeLength="1233.77" waitingTime="0.00" waitingCount="0" stopTime="0.00" timeLoss="5.29" rerouteNo="0" devices="tripinfo_main_def.14" vType="def" speedFactor="1.08" vaporized=""/>
    <tripinfo id="on_ramp_con.4" depart="21.00" departLane="on_ramp_0" departPos="13.30" departSpeed="15.56" departDelay="3.00" arrival="66.00" arrivalLane="end_main_road_0" arrivalPos="193.07" arrivalSpeed="21.29" duration="45.00" routeLength="655.69" waitingTime="0.00" waitingCount="0" stopTime="0.00" timeLoss="14.36" rerouteNo="0" devices="tripinfo_on_ramp_con.4" vType="con" speedFactor="1.12" vaporized=""/>
    <tripinfo id="main_def.17" depart="19.00" departLane="entry_1" departPos="86.30" departSpeed="21.63" departDelay="3.70" arrival="67.00" arrivalLane="end_main_road_2" arrivalPos="193.07" arrivalSpeed="27.37" duration="48.00" routeLength="1178.95" waitingTime="0.00" waitingCount="0" stopTime="0.00" timeLoss="5.68" rerouteNo="0" devices="tripinfo_main_def.17" vType="def" speedFactor="1.07" vaporized=""/>
    <tripinfo id="main_def.18" depart="19.00" departLane="entry_0" departPos="221.86" departSpeed="20.15" departDelay="2.80" arrival="67.00" arrivalLane="end_main_road_1" arrivalPos="193.07" arrivalSpeed="25.23" duration="48.00" routeLength="1043.39" waitingTime="0.00" waitingCount="0" stopTime="0.00" timeLoss="4.50" rerouteNo="0" devices="tripinfo_main_def.18" vType="def" speedFactor="0.92" vaporized=""/>
    <tripinfo id="main_def.12" depart="14.00" departLane="entry_1" departPos="1.59" departSpeed="27.72" departDelay="3.20" arrival="68.00" arrivalLane="end_main_road_1" arrivalPos="193.07" arrivalSpeed="26.94" duration="54.00" routeLength="1263.66" waitingTime="0.00" waitingCount="0" stopTime="0.00" timeLoss="6.54" rerouteNo="0" devices="tripinfo_main_def.12" vType="def" speedFactor="1.00" vaporized=""/>
    <tripinfo id="main_def.16" depart="19.00" departLane="entry_0" departPos="45.05" departSpeed="29.49" departDelay="4.60" arrival="68.00" arrivalLane="end_main_road_2" arrivalPos="193.07" arrivalSpeed="28.80" duration="49.00" routeLength="1220.20" waitingTime="0.00" waitingCount="0" stopTime="0.00" timeLoss="5.69" rerouteNo="0" devices="tripinfo_main_def.16" vType="def" speedFactor="1.06" vaporized=""/>
    <tripinfo id="on_ramp_def.6" depart="24.00" departLane="on_ramp_0" departPos="19.97" departSpeed="14.49" departDelay="4.36" arrival="68.00" arrivalLane="end_main_road_0" arrivalPos="193.07" arrivalSpeed="22.24" duration="44.00" routeLength="649.02" waitingTime="0.00" waitingCount="0" stopTime="0.00" timeLoss="11.60" rerouteNo="0" devices="tripinfo_on_ramp_def.6" vType="def" speedFactor="1.04" vaporized=""/>
    <tripinfo id="main_con.5" depart="10.00" departLane="entry_0" departPos="187.83" departSpeed="23.10" departDelay="1.00" arrival="70.00" arrivalLane="end_main_road_0" arrivalPos="193.07" arrivalSpeed="22.52" duration="60.00" routeLength="1077.42" waitingTime="0.00" waitingCount="0" stopTime="0.00" timeLoss="12.63" rerouteNo="0" devices="tripinfo_main_con.5" vType="con" speedFactor="0.87" vaporized=""/>
    <tripinfo id="main_con.8" depart="16.00" departLane="entry_0" departPos="65.92" departSpeed="24.61" departDelay="1.60" arrival="70.00" arrivalLane="end_main_road_2" arrivalPos="193.07" arrivalSpeed="31.59" duration="54.00" routeLength="1199.33" waitingTime="0.00" waitingCount="0" stopTime="0.00" timeLoss="14.39" rerouteNo="0" devices="tripinfo_main_con.8" vType="con" speedFactor="1.15" vaporized=""/>
    <tripinfo id="main_con.10" depart="21.00" departLane="entry_1" departPos="153.50" departSpeed="25.31" departDelay="3.00" arrival="70.00" arrivalLane="end_main_road_1" arrivalPos="193.07" arrivalSpeed="26.37" duration="49.00" routeLength="1111.75" waitingTime="0.00" waitingCount="0" stopTime="0.00" timeLoss="4.75" rerouteNo="0" devices="tripinfo_main_con.10" vType="con" speedFactor="0.95" vaporized=""/>
    <tripinfo id="on_ramp_con.5" depart="25.00" departLane="on_ramp_0" departPos="24.95" departSpeed="8.42" departDelay="2.50" arrival="71.00" arrivalLane="end_main_road_0" arrivalPos="193.07" arrivalSpeed="26.46" duration="46.00" routeLength="644.04" waitingTime="0.00" waitingCount="0" stopTime="0.00" timeLoss="15.65" rerouteNo="0" devices="tripinfo_on_ramp_con.5" vType="con" speedFactor="1.10" vaporized=""/>
    <tripinfo id="main_def.11" depart="12.00" departLane="entry_0" departPos="139.33" departSpeed="29.94" departDelay="2.10" arrival="73.00" arrivalLane="end_main_road_0" arrivalPos="193.07" arrivalSpeed="26.65" duration="61.00" routeLength="1125.92" waitingTime="0.00" waitingCount="0" stopTime="0.00" timeLoss="21.15" rerouteNo="0" devices="tripinfo_main_def.11" vType="def" speedFactor="1.08" vaporized=""/>
    <tripinfo id="on_ramp_con.6" depart="33.00" departLane="on_ramp_0" departPos="80.78" departSpeed="11.77" departDelay="6.00" arrival="73.00" arrivalLane="end_main_road_1" arrivalPos="193.07" arrivalSpeed="28.47" duration="40.00" routeLength="588.21" waitingTime="0.00" waitingCount="0" stopTime="0.00" timeLoss="12.65" rerouteNo="0" devices="tripinfo_on_ramp_con.6" vType="con" speedFactor="1.08" vaporized=""/>
    <tripinfo id="off_ramp_con.2" depart="45.00" departLane="entry_0" departPos="136.73" departSpeed="23.45" departDelay="9.00" arrival="73.00" arrivalLane="off_ramp_0" arrivalPos="161.26" arrivalSpeed="15.00" duration="28.00" routeLength="459.75" waitingTime="0.00" waitingCount="0" stopTime="0.00" timeLoss="3.78" rerouteNo="0" devices="tripinfo_off_ramp_con.2" vType="con" speedFactor="1.09" vaporized=""/>
    <tripinfo id="on_ramp_def.8" depart="36.00" departLane="on_ramp_0" departPos="106.48" departSpeed="9.11" departDelay="9.82" arrival="75.00" arrivalLane="end_main_road_0" arrivalPos="193.07" arrivalSpeed="21.46" duration="39.00" routeLength="562.51" waitingTime="0.00" waitingCount="0" stopTime="0.00" timeLoss="14.10" rerouteNo="0" devices="tripinfo_on_ramp_def.8" vType="def" speedFactor="1.10" vaporized=""/>
    <tripinfo id="off_ramp_def.1" depart="45.00" departLane="entry_0" departPos="80.88" departSpeed="27.51" departDelay="7.11" arrival="76.00" arrivalLane="off_ramp_0" arrivalPos="161.26" arrivalSpeed="13.65" duration="31.00" routeLength="515.60" waitingTime="0.00" waitingCount="0" stopTime="0.00" timeLoss="4.30" rerouteNo="0" devices="tripinfo_off_ramp_def.1" vType="def" speedFactor="1.04" vaporized=""/>
    <tripinfo id="main_con.6" depart="14.00" departLane="entry_0" departPos="118.41" departSpeed="24.35" departDelay="3.20" arrival="77.00" arrivalLane="end_main_road_0" arrivalPos="193.07" arrivalSpeed="23.05" duration="63.00" routeLength="1146.84" waitingTime="0.00" waitingCount="0" stopTime="0.00" timeLoss="14.89" rerouteNo="0" devices="tripinfo_main_con.6" vType="con" speedFactor="0.91" vaporized=""/>
    <tripinfo id="main_def.15" depart="16.00" departLane="entry_2" departPos="10.53" departSpeed="22.87" departDelay="2.50" arrival="78.00" arrivalLane="end_main_road_1" arrivalPos="193.07" arrivalSpeed="22.21" duration="62.00" routeLength="1254.72" waitingTime="0.00" waitingCount="0" stopTime="0.00" timeLoss="4.00" rerouteNo="0" devices="tripinfo_main_def.15" vType="def" speedFactor="0.82" vaporized=""/>
    <tripinfo id="main_def.20" depart="21.00" departLane="entry_2" departPos="101.65" departSpeed="19.73" departDelay="3.00" arrival="79.00" arrivalLane="end_main_road_2" arrivalPos="193.07" arrivalSpeed="22.44" duration="58.00" routeLength="1163.60" waitingTime="0.00" waitingCount="0" stopTime="0.00" timeLoss="4.81" rerouteNo="0" devices="tripinfo_main_def.20" vType="def" speedFactor="0.83" vaporized=""/>
    <tripinfo id="on_ramp_def.9" depart="37.00" departLane="on_ramp_0" departPos="79.46" departSpeed="14.63" departDelay="7.54" arrival="79.00" arrivalLane="end_main_road_0" arrivalPos="193.07" arrivalSpeed="22.57" duration="42.00" routeLength="589.53" waitingTime="0.00" waitingCount="0" stopTime="0.00" timeLoss="14.64" rerouteNo="0" devices="tripinfo_on_ramp_def.9" vType="def" speedFactor="1.08" vaporized=""/>
    <tripinfo id="on_ramp_con.7" depart="37.00" departLane="on_ramp_0" departPos="55.47" departSpeed="13.31" departDelay="5.50" arrival="80.00" arrivalLane="end_main_road_1" arrivalPos="193.07" arrivalSpeed="24.04" duration="43.00" routeLength="613.52" waitingTime="0.00" waitingCount="0" stopTime="0.00" timeLoss="9.90" rerouteNo="0" devices="tripinfo_on_ramp_con.7" vType="con" speedFactor="0.96" vaporized=""/>
    <tripinfo id="main_con.7" depart="16.00" departLane="entry_0" departPos="90.22" departSpeed="26.17" departDelay="3.40" arrival="81.00" arrivalLane="end_main_road_0" arrivalPos="193.07" arrivalSpeed="22.64" duration="65.00" routeLength="1175.03" waitingTime="0.00" waitingCount="0" stopTime="0.00" timeLoss="17.40" rerouteNo="0" devices="tripinfo_main_con.7" vType="con" speedFactor="0.94" vaporized=""/>
    <tripinfo id="main_con.11" depart="24.00" departLane="entry_2" departPos="68.73" departSpeed="28.69" departDelay="4.20" arrival="81.00" arrivalLane="end_main_road_2" arrivalPos="193.07" arrivalSpeed="24.99" duration="57.00" routeLength="1196.52" waitingTime="0.00" waitingCount="0" stopTime="0.00" timeLoss="12.71" rerouteNo="0" devices="tripinfo_main_con.11" vType="con" speedFactor="1.03" vaporized=""/>
    <tripinfo id="main_def.24" depart="26.00" departLane="entry_2" departPos="111.73" departSpeed="24.05" departDelay="4.40" arrival="82.00" arrivalLane="end_main_road_2" arrivalPos="193.07" arrivalSpeed="24.91" duration="56.00" routeLength="1153.52" waitingTime="0.00" waitingCount="0" stopTime="0.00" timeLoss="7.91" rerouteNo="0" devices="tripinfo_main_def.24" vType="def" speedFactor="0.91" vaporized=""/>
    <tripinfo id="main_def.25" depart="26.00" departLane="entry_1" departPos="188.00" departSpeed="29.26" departDelay="3.50" arrival="82.00" arrivalLane="end_main_road_1" arrivalPos="193.07" arrivalSpeed="23.69" duration="56.00" routeLength="1077.25" waitingTime="0.00" waitingCount="0" stopTime="0.00" timeLoss="16.71" rerouteNo="0" devices="tripinfo_main_def.25" vType="def" speedFactor="1.05" vaporized=""/>
    <tripinfo id="on_ramp_def.10" depart="38.00" departLane="on_ramp_0" departPos="57.43" departSpeed="9.47" departDelay="5.27" arrival="82.00" arrivalLane="end_main_road_0" arrivalPos="193.07" arrivalSpeed="20.76" duration="44.00" routeLength="611.56" waitingTime="0.00" waitingCount="0" stopTime="0.00" timeLoss="6.19" rerouteNo="0" devices="tripinfo_on_ramp_def.10" vType="def" speedFactor="0.82" vaporized=""/>
    <tripinfo id="main_def.19" depart="21.00" departLane="entry_1" departPos="38.48" departSpeed="25.99" departDelay="3.90" arrival="83.00" arrivalLane="end_main_road_1" arrivalPos="193.07" arrivalSpeed="24.40" duration="62.00" routeLength="1226.77" waitingTime="0.00" waitingCount="0" stopTime="0.00" timeLoss="12.47" rerouteNo="0" devices="tripinfo_main_def.19" vType="def" speedFactor="0.94" vaporized=""/>
    <tripinfo id="main_con.13" depart="26.00" departLane="entry_2" departPos="7.76" departSpeed="31.57" departDelay="2.60" arrival="84.00" arrivalLane="end_main_road_2" arrivalPos="193.07" arrivalSpeed="24.93" duration="58.00" routeLength="1257.49" waitingTime="0.00" waitingCount="0" stopTime="0.00" timeLoss="16.09" rerouteNo="0" devices="tripinfo_main_con.13" vType="con" speedFactor="1.14" vaporized=""/>
    <tripinfo id="on_ramp_con.8" depart="39.00" departLane="on_ramp_0" departPos="15.24" departSpeed="14.78" departDelay="3.00" arrival="84.00" arrivalLane="end_main_road_0" arrivalPos="193.07" arrivalSpeed="24.59" duration="45.00" routeLength="653.75" waitingTime="0.00" waitingCount="0" stopTime="0.00" timeLoss="12.70" rerouteNo="0" devices="tripinfo_on_ramp_con.8" vType="con" speedFactor="1.06" vaporized=""/>
    <tripinfo id="main_con.12" depart="25.00" departLane="entry_1" departPos="99.32" departSpeed="24.30" departDelay="3.40" arrival="85.00" arrivalLane="end_main_road_1" arrivalPos="193.07" arrivalSpeed="25.29" duration="60.00" routeLength="1165.93" waitingTime="0.00" waitingCount="0" stopTime="0.00" timeLoss="20.85" rerouteNo="0" devices="tripinfo_main_con.12" vType="con" speedFactor="1.14" vaporized=""/>
    <tripinfo id="main_def.27" depart="28.00" departLane="entry_1" departPos="41.12" departSpeed="29.15" departDelay="3.70" arrival="85.00" arrivalLane="end_main_road_2" arrivalPos="193.07" arrivalSpeed="25.16" duration="57.00" routeLength="1224.13" waitingTime="0.00" waitingCount="0" stopTime="0.00" timeLoss="19.10" rerouteNo="0" devices="tripinfo_main_def.27" vType="def" speedFactor="1.21" vaporized=""/>
    <tripinfo id="on_ramp_def.11" depart="39.00" departLane="on_ramp_0" departPos="3.20" departSpeed="11.79" departDelay="3.00" arrival="85.00" arrivalLane="end_main_road_0" arrivalPos="193.07" arrivalSpeed="23.04" duration="46.00" routeLength="665.79" waitingTime="0.00" waitingCount="0" stopTime="0.00" timeLoss="14.53" rerouteNo="0" devices="tripinfo_on_ramp_def.11" vType="def" speedFactor="1.11" vaporized=""/>
    <tripinfo id="main_def.22" depart="24.00" departLane="entry_1" departPos="3.60" departSpeed="25.66" departDelay="4.20" arrival="86.00" arrivalLane="end_main_road_1" arrivalPos="193.07" arrivalSpeed="24.82" duration="62.00" routeLength="1261.65" waitingTime="0.00" waitingCount="0" stopTime="0.00" timeLoss="10.57" rerouteNo="0" devices="tripinfo_main_def.22" vType="def" speedFactor="0.92" vaporized=""/>
    <tripinfo id="main_def.21" depart="21.00" departLane="entry_0" departPos="2.99" departSpeed="23.54" departDelay="2.10" arrival="87.00" arrivalLane="end_main_road_0" arrivalPos="193.07" arrivalSpeed="23.33" duration="66.00" routeLength="1262.26" waitingTime="0.00" waitingCount="0" stopTime="0.00" timeLoss="9.74" rerouteNo="0" devices="tripinfo_main_def.21" vType="def" speedFactor="0.85" vaporized=""/>
    <tripinfo id="main_def.28" depart="30.00" departLane="entry_2" departPos="46.92" departSpeed="26.14" departDelay="4.80" arrival="87.00" arrivalLane="end_main_road_2" arrivalPos="193.07" arrivalSpeed="25.08" duration="57.00" routeLength="1218.33" waitingTime="0.00" waitingCount="0" stopTime="0.00" timeLoss="7.98" rerouteNo="0" devices="tripinfo_main_def.28" vType="def" speedFactor="0.94" vaporized=""/>
    <tripinfo id="main_def.23" depart="24.00" departLane="entry_0" departPos="52.10" departSpeed="19.58" departDelay="3.30" arrival="88.00" arrivalLane="end_main_road_1" arrivalPos="193.07" arrivalSpeed="26.32" duration="64.00" routeLength="1213.15" waitingTime="0.00" waitingCount="0" stopTime="0.00" timeLoss="19.04" rerouteNo="0" devices="tripinfo_main_def.23" vType="def" speedFactor="1.02" vaporized=""/>
    <tripinfo id="main_con.17" depart="38.00" departLane="entry_2" departPos="187.00" departSpeed="27.75" departDelay="7.40" arrival="88.00" arrivalLane="end_main_road_2" arrivalPos="193.07" arrivalSpeed="26.02" duration="50.00" routeLength="1078.25" waitingTime="0.00" waitingCount="0" stopTime="0.00" timeLoss="9.30" rerouteNo="0" devices="tripinfo_main_con.17" vType="con" speedFactor="1.00" vaporized=""/>