<?xml version="1.0" encoding="UTF-8"?>

<!-- generated on 2025-07-03 11:49:14 by Eclipse SUMO GUI Version 1.18.0
<configuration xmlns:xsi="http://www.w3.org/2001/XMLSchema-instance" xsi:noNamespaceSchemaLocation="http://sumo.dlr.de/xsd/sumoConfiguration.xsd">

    <input>
        <net-file value="env/custom_env/data/1ramp_1x3/1ramp_1x3.net.xml"/>
        <route-files value="env/custom_env/data/1ramp_1x3/1ramp_1x3.rou.xml"/>
        <additional-files value="env/custom_env/data/1ramp_1x3/1ramp_1x3.add.xml"/>
    </input>

    <output>
        <tripinfo-output value="env/custom_env/data/1ramp_1x3/tripinfo.xml"/>
    </output>

    <time>
        <begin value="0"/>
    </time>

    <processing>
        <time-to-teleport value="3600"/>
        <waiting-time-memory value="3600"/>
    </processing>

    <routing>
        <device.rerouting.probability value="0"/>
    </routing>

    <report>
        <verbose value="true"/>
        <no-warnings value="true"/>
        <log value="log"/>
        <duration-log.statistics value="true"/>
        <no-step-log value="true"/>
    </report>

    <traci_server>
        <remote-port value="54163"/>
    </traci_server>

    <random_number>
        <seed value="42"/>
    </random_number>

    <gui_only>
        <gui-settings-file value="env/custom_env/data/1ramp_1x3/gui-settings.cfg"/>
        <quit-on-end value="false"/>
        <start value="true"/>
        <delay value="0"/>
    </gui_only>

</configuration>
-->

<tripinfos xmlns:xsi="http://www.w3.org/2001/XMLSchema-instance" xsi:noNamespaceSchemaLocation="http://sumo.dlr.de/xsd/tripinfo_file.xsd">
    <tripinfo id="off_ramp_def.0" depart="0.00" departLane="entry_0" departPos="175.93" departSpeed="30.13" departDelay="0.00" arrival="25.00" arrivalLane="off_ramp_0" arrivalPos="161.26" arrivalSpeed="12.83" duration="25.00" routeLength="420.55" waitingTime="0.00" waitingCount="0" stopTime="0.00" timeLoss="2.17" rerouteNo="0" devices="tripinfo_off_ramp_def.0" vType="def" speedFactor="1.08" vaporized=""/>
    <tripinfo id="off_ramp_con.0" depart="0.00" departLane="entry_0" departPos="165.17" departSpeed="25.86" departDelay="0.00" arrival="29.00" arrivalLane="off_ramp_0" arrivalPos="161.26" arrivalSpeed="12.43" duration="29.00" routeLength="431.31" waitingTime="0.00" waitingCount="0" stopTime="0.00" timeLoss="2.24" rerouteNo="0" devices="tripinfo_off_ramp_con.0" vType="con" speedFactor="0.93" vaporized=""/>
    <tripinfo id="on_ramp_con.0" depart="0.00" departLane="on_ramp_0" departPos="194.36" departSpeed="7.29" departDelay="0.00" arrival="31.00" arrivalLane="end_main_road_0" arrivalPos="193.07" arrivalSpeed="31.31" duration="31.00" routeLength="474.63" waitingTime="0.00" waitingCount="0" stopTime="0.00" timeLoss="12.70" rerouteNo="0" devices="tripinfo_on_ramp_con.0" vType="con" speedFactor="1.16" vaporized=""/>
    <tripinfo id="on_ramp_con.1" depart="5.00" departLane="on_ramp_0" departPos="177.08" departSpeed="11.01" departDelay="0.50" arrival="35.00" arrivalLane="end_main_road_0" arrivalPos="193.07" arrivalSpeed="25.37" duration="30.00" routeLength="491.91" waitingTime="0.00" waitingCount="0" stopTime="0.00" timeLoss="5.83" rerouteNo="0" devices="tripinfo_on_ramp_con.1" vType="con" speedFactor="0.94" vaporized=""/>
    <tripinfo id="on_ramp_def.2" depart="7.00" departLane="on_ramp_0" departPos="144.76" departSpeed="13.91" departDelay="0.45" arrival="36.00" arrivalLane="end_main_road_1" arrivalPos="193.07" arrivalSpeed="26.82" duration="29.00" routeLength="524.23" waitingTime="0.00" waitingCount="0" stopTime="0.00" timeLoss="4.07" rerouteNo="0" devices="tripinfo_on_ramp_def.2" vType="def" speedFactor="1.00" vaporized=""/>
    <tripinfo id="main_def.0" depart="0.00" departLane="entry_1" departPos="179.73" departSpeed="29.77" departDelay="0.00" arrival="41.00" arrivalLane="end_main_road_1" arrivalPos="193.07" arrivalSpeed="27.97" duration="41.00" routeLength="1085.52" waitingTime="0.00" waitingCount="0" stopTime="0.00" timeLoss="2.08" rerouteNo="0" devices="tripinfo_main_def.0" vType="def" speedFactor="1.07" vaporized=""/>
    <tripinfo id="on_ramp_def.0" depart="0.00" departLane="on_ramp_0" departPos="37.50" departSpeed="12.24" departDelay="0.00" arrival="42.00" arrivalLane="end_main_road_0" arrivalPos="193.07" arrivalSpeed="23.19" duration="42.00" routeLength="631.49" waitingTime="0.00" waitingCount="0" stopTime="0.00" timeLoss="4.87" rerouteNo="0" devices="tripinfo_on_ramp_def.0" vType="def" speedFactor="0.88" vaporized=""/>
    <tripinfo id="main_def.1" depart="1.00" departLane="entry_2" departPos="135.08" departSpeed="28.59" departDelay="0.10" arrival="45.00" arrivalLane="end_main_road_2" arrivalPos="193.07" arrivalSpeed="26.44" duration="44.00" routeLength="1130.17" waitingTime="0.00" waitingCount="0" stopTime="0.00" timeLoss="2.22" rerouteNo="0" devices="tripinfo_main_def.1" vType="def" speedFactor="1.03" vaporized=""/>
    <tripinfo id="main_con.1" depart="2.00" departLane="entry_1" departPos="134.67" departSpeed="31.44" departDelay="0.20" arrival="46.00" arrivalLane="end_main_road_1" arrivalPos="193.07" arrivalSpeed="29.13" duration="44.00" routeLength="1130.58" waitingTime="0.00" waitingCount="0" stopTime="0.00" timeLoss="6.23" rerouteNo="0" devices="tripinfo_main_con.1" vType="con" speedFactor="1.13" vaporized=""/>
    <tripinfo id="main_def.5" depart="5.00" departLane="entry_2" departPos="103.62" departSpeed="32.31" departDelay="0.50" arrival="47.00" arrivalLane="end_main_road_2" arrivalPos="193.07" arrivalSpeed="28.32" duration="42.00" routeLength="1161.63" waitingTime="0.00" waitingCount="0" stopTime="0.00" timeLoss="3.67" rerouteNo="0" devices="tripinfo_main_def.5" vType="def" speedFactor="1.16" vaporized=""/>
    <tripinfo id="main_con.0" depart="0.00" departLane="entry_0" departPos="84.51" departSpeed="26.33" departDelay="0.00" arrival="50.00" arrivalLane="end_main_road_1" arrivalPos="193.07" arrivalSpeed="25.08" duration="50.00" routeLength="1180.74" waitingTime="0.00" waitingCount="0" stopTime="0.00" timeLoss="2.73" rerouteNo="0" devices="tripinfo_main_con.0" vType="con" speedFactor="0.95" vaporized=""/>
    <tripinfo id="on_ramp_def.1" depart="4.00" departLane="on_ramp_0" departPos="11.87" departSpeed="11.32" departDelay="0.73" arrival="51.00" arrivalLane="end_main_road_0" arrivalPos="193.07" arrivalSpeed="21.10" duration="47.00" routeLength="657.12" waitingTime="0.00" waitingCount="0" stopTime="0.00" timeLoss="4.94" rerouteNo="0" devices="tripinfo_on_ramp_def.1" vType="def" speedFactor="0.82" vaporized=""/>
    <tripinfo id="on_ramp_def.4" depart="15.00" departLane="on_ramp_0" departPos="81.75" departSpeed="9.87" departDelay="1.91" arrival="51.00" arrivalLane="end_main_road_1" arrivalPos="193.07" arrivalSpeed="26.59" duration="36.00" routeLength="587.24" waitingTime="0.00" waitingCount="0" stopTime="0.00" timeLoss="10.81" rerouteNo="0" devices="tripinfo_on_ramp_def.4" vType="def" speedFactor="1.15" vaporized=""/>
    <tripinfo id="main_con.2" depart="4.00" departLane="entry_2" departPos="35.20" departSpeed="27.80" departDelay="0.40" arrival="53.00" arrivalLane="end_main_road_2" arrivalPos="193.07" arrivalSpeed="27.22" duration="49.00" routeLength="1230.05" waitingTime="0.00" waitingCount="0" stopTime="0.00" timeLoss="2.42" rerouteNo="0" devices="tripinfo_main_con.2" vType="con" speedFactor="1.00" vaporized=""/>
    <tripinfo id="on_ramp_con.2" depart="10.00" departLane="on_ramp_0" departPos="43.41" departSpeed="12.56" departDelay="1.00" arrival="53.00" arrivalLane="end_main_road_0" arrivalPos="193.07" arrivalSpeed="26.49" duration="43.00" routeLength="625.58" waitingTime="0.00" waitingCount="0" stopTime="0.00" timeLoss="9.32" rerouteNo="0" devices="tripinfo_on_ramp_con.2" vType="con" speedFactor="0.97" vaporized=""/>
    <tripinfo id="on_ramp_def.3" depart="10.00" departLane="on_ramp_0" departPos="0.16" departSpeed="13.05" departDelay="0.18" arrival="54.00" arrivalLane="end_main_road_0" arrivalPos="193.07" arrivalSpeed="24.06" duration="44.00" routeLength="668.83" waitingTime="0.00" waitingCount="0" stopTime="0.00" timeLoss="6.69" rerouteNo="0" devices="tripinfo_on_ramp_def.3" vType="def" speedFactor="0.94" vaporized=""/>
    <tripinfo id="main_con.4" depart="9.00" departLane="entry_2" departPos="4.64" departSpeed="34.44" departDelay="1.80" arrival="55.00" arrivalLane="end_main_road_2" arrivalPos="193.07" arrivalSpeed="31.28" duration="46.00" routeLength="1260.61" waitingTime="0.00" waitingCount="0" stopTime="0.00" timeLoss="6.99" rerouteNo="0" devices="tripinfo_main_con.4" vType="con" speedFactor="1.24" vaporized=""/>
    <tripinfo id="on_ramp_con.3" depart="14.00" departLane="on_ramp_0" departPos="4.71" departSpeed="14.03" departDelay="0.50" arrival="55.00" arrivalLane="end_main_road_1" arrivalPos="193.07" arrivalSpeed="26.95" duration="41.00" routeLength="664.28" waitingTime="0.00" waitingCount="0" stopTime="0.00" timeLoss="6.18" rerouteNo="0" devices="tripinfo_on_ramp_con.3" vType="con" speedFactor="1.01" vaporized=""/>
    <tripinfo id="off_ramp_con.1" depart="20.00" departLane="entry_0" departPos="10.48" departSpeed="27.50" departDelay="2.00" arrival="55.00" arrivalLane="off_ramp_0" arrivalPos="161.26" arrivalSpeed="13.39" duration="35.00" routeLength="586.00" waitingTime="0.00" waitingCount="0" stopTime="0.00" timeLoss="4.31" rerouteNo="0" devices="tripinfo_off_ramp_con.1" vType="con" speedFactor="0.99" vaporized=""/>
    <tripinfo id="main_def.4" depart="4.00" departLane="entry_0" departPos="22.56" departSpeed="27.62" departDelay="0.40" arrival="57.00" arrivalLane="end_main_road_2" arrivalPos="193.07" arrivalSpeed="27.46" duration="53.00" routeLength="1242.69" waitingTime="0.00" waitingCount="0" stopTime="0.00" timeLoss="5.43" rerouteNo="0" devices="tripinfo_main_def.4" vType="def" speedFactor="0.99" vaporized=""/>
    <tripinfo id="main_def.2" depart="2.00" departLane="entry_1" departPos="35.20" departSpeed="24.51" departDelay="0.20" arrival="58.00" arrivalLane="end_main_road_1" arrivalPos="193.07" arrivalSpeed="24.10" duration="56.00" routeLength="1230.05" waitingTime="0.00" waitingCount="0" stopTime="0.00" timeLoss="3.22" rerouteNo="0" devices="tripinfo_main_def.2" vType="def" speedFactor="0.88" vaporized=""/>
    <tripinfo id="main_def.3" depart="3.00" departLane="entry_0" departPos="100.60" departSpeed="23.46" departDelay="0.30" arrival="59.00" arrivalLane="end_main_road_0" arrivalPos="193.07" arrivalSpeed="22.50" duration="56.00" routeLength="1164.65" waitingTime="0.00" waitingCount="0" stopTime="0.00" timeLoss="3.47" rerouteNo="0" devices="tripinfo_main_def.3" vType="def" speedFactor="0.84" vaporized=""/>
    <tripinfo id="main_def.10" depart="12.00" departLane="entry_2" departPos="41.38" departSpeed="31.14" departDelay="3.00" arrival="59.00" arrivalLane="end_main_road_2" arrivalPos="193.07" arrivalSpeed="29.96" duration="47.00" routeLength="1223.87" waitingTime="0.00" waitingCount="0" stopTime="0.00" timeLoss="5.14" rerouteNo="0" devices="tripinfo_main_def.10" vType="def" speedFactor="1.12" vaporized=""/>
    <tripinfo id="main_con.3" depart="6.00" departLane="entry_1" departPos="75.30" departSpeed="27.51" departDelay="0.60" arrival="60.00" arrivalLane="end_main_road_1" arrivalPos="193.07" arrivalSpeed="27.40" duration="54.00" routeLength="1189.95" waitingTime="0.00" waitingCount="0" stopTime="0.00" timeLoss="8.00" rerouteNo="0" devices="tripinfo_main_con.3" vType="con" speedFactor="0.99" vaporized=""/>
    <tripinfo id="main_def.13" depart="15.00" departLane="entry_2" departPos="118.41" departSpeed="27.27" departDelay="3.30" arrival="60.00" arrivalLane="end_main_road_2" arrivalPos="193.07" arrivalSpeed="29.89" duration="45.00" routeLength="1146.84" waitingTime="0.00" waitingCount="0" stopTime="0.00" timeLoss="4.45" rerouteNo="0" devices="tripinfo_main_def.13" vType="def" speedFactor="1.08" vaporized=""/>
    <tripinfo id="on_ramp_con.4" depart="24.00" departLane="on_ramp_0" departPos="78.79" departSpeed="15.56" departDelay="6.00" arrival="60.00" arrivalLane="end_main_road_0" arrivalPos="193.07" arrivalSpeed="24.70" duration="36.00" routeLength="590.20" waitingTime="0.00" waitingCount="0" stopTime="0.00" timeLoss="9.86" rerouteNo="0" devices="tripinfo_on_ramp_con.4" vType="con" speedFactor="1.12" vaporized=""/>
    <tripinfo id="main_con.8" depart="17.00" departLane="entry_0" departPos="82.67" departSpeed="31.94" departDelay="2.60" arrival="61.00" arrivalLane="end_main_road_2" arrivalPos="193.07" arrivalSpeed="31.59" duration="44.00" routeLength="1182.58" waitingTime="0.00" waitingCount="0" stopTime="0.00" timeLoss="5.31" rerouteNo="0" devices="tripinfo_main_con.8" vType="con" speedFactor="1.15" vaporized=""/>
    <tripinfo id="main_con.5" depart="10.00" departLane="entry_0" departPos="187.83" departSpeed="23.10" departDelay="1.00" arrival="62.00" arrivalLane="end_main_road_1" arrivalPos="193.07" arrivalSpeed="23.51" duration="52.00" routeLength="1077.42" waitingTime="0.00" waitingCount="0" stopTime="0.00" timeLoss="4.66" rerouteNo="0" devices="tripinfo_main_con.5" vType="con" speedFactor="0.87" vaporized=""/>
    <tripinfo id="main_con.9" depart="20.00" departLane="entry_0" departPos="221.86" departSpeed="23.93" departDelay="3.80" arrival="63.00" arrivalLane="end_main_road_2" arrivalPos="193.07" arrivalSpeed="28.75" duration="43.00" routeLength="1043.39" waitingTime="0.00" waitingCount="0" stopTime="0.00" timeLoss="5.19" rerouteNo="0" devices="tripinfo_main_con.9" vType="con" speedFactor="1.06" vaporized=""/>
    <tripinfo id="on_ramp_con.6" depart="31.00" departLane="on_ramp_0" departPos="158.47" departSpeed="11.95" departDelay="4.00" arrival="63.00" arrivalLane="end_main_road_0" arrivalPos="193.07" arrivalSpeed="22.78" duration="32.00" routeLength="510.52" waitingTime="0.00" waitingCount="0" stopTime="0.00" timeLoss="9.75" rerouteNo="0" devices="tripinfo_on_ramp_con.6" vType="con" speedFactor="1.08" vaporized=""/>
    <tripinfo id="main_def.7" depart="7.00" departLane="entry_1" departPos="32.24" departSpeed="24.35" departDelay="0.70" arrival="64.00" arrivalLane="end_main_road_1" arrivalPos="193.07" arrivalSpeed="24.13" duration="57.00" routeLength="1233.01" waitingTime="0.00" waitingCount="0" stopTime="0.00" timeLoss="3.50" rerouteNo="0" devices="tripinfo_main_def.7" vType="def" speedFactor="0.88" vaporized=""/>
    <tripinfo id="main_def.9" depart="11.00" departLane="entry_0" departPos="41.03" departSpeed="26.30" departDelay="2.90" arrival="65.00" arrivalLane="end_main_road_1" arrivalPos="193.07" arrivalSpeed="26.58" duration="54.00" routeLength="1224.22" waitingTime="0.00" waitingCount="0" stopTime="0.00" timeLoss="9.95" rerouteNo="0" devices="tripinfo_main_def.9" vType="def" speedFactor="1.05" vaporized=""/>
    <tripinfo id="on_ramp_con.7" depart="36.00" departLane="on_ramp_0" departPos="196.50" departSpeed="13.31" departDelay="4.50" arrival="65.00" arrivalLane="end_main_road_0" arrivalPos="193.07" arrivalSpeed="26.43" duration="29.00" routeLength="472.49" waitingTime="0.00" waitingCount="0" stopTime="0.00" timeLoss="6.93" rerouteNo="0" devices="tripinfo_on_ramp_con.7" vType="con" speedFactor="0.96" vaporized=""/>
    <tripinfo id="main_def.6" depart="6.00" departLane="entry_0" departPos="135.64" departSpeed="21.72" departDelay="0.60" arrival="67.00" arrivalLane="end_main_road_0" arrivalPos="193.07" arrivalSpeed="26.30" duration="61.00" routeLength="1129.61" waitingTime="0.00" waitingCount="0" stopTime="0.00" timeLoss="22.84" rerouteNo="0" devices="tripinfo_main_def.6" vType="def" speedFactor="1.13" vaporized=""/>
    <tripinfo id="main_con.6" depart="14.00" departLane="entry_0" departPos="118.41" departSpeed="24.35" departDelay="3.20" arrival="67.00" arrivalLane="end_main_road_1" arrivalPos="193.07" arrivalSpeed="25.03" duration="53.00" routeLength="1146.84" waitingTime="0.00" waitingCount="0" stopTime="0.00" timeLoss="4.99" rerouteNo="0" devices="tripinfo_main_con.6" vType="con" speedFactor="0.91" vaporized=""/>
    <tripinfo id="main_def.8" depart="9.00" departLane="entry_0" departPos="12.73" departSpeed="30.42" departDelay="1.80" arrival="69.00" arrivalLane="end_main_road_1" arrivalPos="193.07" arrivalSpeed="24.95" duration="60.00" routeLength="1252.52" waitingTime="0.00" waitingCount="0" stopTime="0.00" timeLoss="17.10" rerouteNo="0" devices="tripinfo_main_def.8" vType="def" speedFactor="1.10" vaporized=""/>
    <tripinfo id="main_def.18" depart="21.00" departLane="entry_2" departPos="194.04" departSpeed="25.45" departDelay="4.80" arrival="69.00" arrivalLane="end_main_road_2" arrivalPos="193.07" arrivalSpeed="24.61" duration="48.00" routeLength="1071.21" waitingTime="0.00" waitingCount="0" stopTime="0.00" timeLoss="3.00" rerouteNo="0" devices="tripinfo_main_def.18" vType="def" speedFactor="0.92" vaporized=""/>
    <tripinfo id="on_ramp_def.5" depart="22.00" departLane="on_ramp_0" departPos="34.86" departSpeed="11.94" departDelay="5.64" arrival="69.00" arrivalLane="end_main_road_0" arrivalPos="193.07" arrivalSpeed="22.24" duration="47.00" routeLength="634.13" waitingTime="0.00" waitingCount="0" stopTime="0.00" timeLoss="9.05" rerouteNo="0" devices="tripinfo_on_ramp_def.5" vType="def" speedFactor="0.86" vaporized=""/>
    <tripinfo id="main_def.14" depart="16.00" departLane="entry_1" departPos="10.53" departSpeed="29.19" departDelay="3.40" arrival="70.00" arrivalLane="end_main_road_2" arrivalPos="193.07" arrivalSpeed="27.81" duration="54.00" routeLength="1254.72" waitingTime="0.00" waitingCount="0" stopTime="0.00" timeLoss="10.12" rerouteNo="0" devices="tripinfo_main_def.14" vType="def" speedFactor="1.08" vaporized=""/>
    <tripinfo id="main_def.11" depart="12.00" departLane="entry_0" departPos="139.33" departSpeed="29.94" departDelay="2.10" arrival="71.00" arrivalLane="end_main_road_0" arrivalPos="193.07" arrivalSpeed="24.14" duration="59.00" routeLength="1125.92" waitingTime="0.00" waitingCount="0" stopTime="0.00" timeLoss="19.16" rerouteNo="0" devices="tripinfo_main_def.11" vType="def" speedFactor="1.08" vaporized=""/>
    <tripinfo id="off_ramp_con.2" depart="41.00" departLane="entry_0" departPos="66.22" departSpeed="29.71" departDelay="5.00" arrival="72.00" arrivalLane="off_ramp_0" arrivalPos="161.26" arrivalSpeed="14.60" duration="31.00" routeLength="530.26" waitingTime="0.00" waitingCount="0" stopTime="0.00" timeLoss="4.74" rerouteNo="0" devices="tripinfo_off_ramp_con.2" vType="con" speedFactor="1.09" vaporized=""/>
    <tripinfo id="main_def.12" depart="14.00" departLane="entry_1" departPos="1.59" departSpeed="27.72" departDelay="3.20" arrival="73.00" arrivalLane="end_main_road_2" arrivalPos="193.07" arrivalSpeed="27.33" duration="59.00" routeLength="1263.66" waitingTime="0.00" waitingCount="0" stopTime="0.00" timeLoss="11.54" rerouteNo="0" devices="tripinfo_main_def.12" vType="def" speedFactor="1.00" vaporized=""/>
    <tripinfo id="main_def.15" depart="16.00" departLane="entry_2" departPos="65.92" departSpeed="22.87" departDelay="2.50" arrival="74.00" arrivalLane="end_main_road_1" arrivalPos="193.07" arrivalSpeed="21.62" duration="58.00" routeLength="1199.33" waitingTime="0.00" waitingCount="0" stopTime="0.00" timeLoss="3.22" rerouteNo="0" devices="tripinfo_main_def.15" vType="def" speedFactor="0.82" vaporized=""/>
    <tripinfo id="on_ramp_def.6" depart="24.00" departLane="on_ramp_0" departPos="19.97" departSpeed="14.49" departDelay="4.36" arrival="76.00" arrivalLane="end_main_road_1" arrivalPos="193.07" arrivalSpeed="24.49" duration="52.00" routeLength="649.02" waitingTime="0.00" waitingCount="0" stopTime="0.00" timeLoss="19.62" rerouteNo="0" devices="tripinfo_on_ramp_def.6" vType="def" speedFactor="1.04" vaporized=""/>
    <tripinfo id="main_con.7" depart="16.00" departLane="entry_0" departPos="31.48" departSpeed="26.17" departDelay="3.40" arrival="78.00" arrivalLane="end_main_road_1" arrivalPos="193.07" arrivalSpeed="21.78" duration="62.00" routeLength="1233.77" waitingTime="0.00" waitingCount="0" stopTime="0.00" timeLoss="12.42" rerouteNo="0" devices="tripinfo_main_con.7" vType="con" speedFactor="0.94" vaporized=""/>
    <tripinfo id="main_def.21" depart="23.00" departLane="entry_2" departPos="127.10" departSpeed="23.54" departDelay="4.10" arrival="78.00" arrivalLane="end_main_road_2" arrivalPos="193.07" arrivalSpeed="22.69" duration="55.00" routeLength="1138.15" waitingTime="0.00" waitingCount="0" stopTime="0.00" timeLoss="3.77" rerouteNo="0" devices="tripinfo_main_def.21" vType="def" speedFactor="0.85" vaporized=""/>
    <tripinfo id="off_ramp_def.1" depart="41.00" departLane="entry_0" departPos="3.18" departSpeed="25.75" departDelay="3.11" arrival="78.00" arrivalLane="off_ramp_0" arrivalPos="161.26" arrivalSpeed="13.65" duration="37.00" routeLength="593.30" waitingTime="0.00" waitingCount="0" stopTime="0.00" timeLoss="7.22" rerouteNo="0" devices="tripinfo_off_ramp_def.1" vType="def" speedFactor="1.04" vaporized=""/>
    <tripinfo id="main_con.11" depart="24.00" departLane="entry_2" departPos="68.73" departSpeed="28.69" departDelay="4.20" arrival="79.00" arrivalLane="end_main_road_2" arrivalPos="193.07" arrivalSpeed="22.56" duration="55.00" routeLength="1196.52" waitingTime="0.00" waitingCount="0" stopTime="0.00" timeLoss="11.52" rerouteNo="0" devices="tripinfo_main_con.11" vType="con" speedFactor="1.03" vaporized=""/>
    <tripinfo id="on_ramp_con.5" depart="27.00" departLane="on_ramp_0" departPos="35.44" departSpeed="14.96" departDelay="4.50" arrival="79.00" arrivalLane="end_main_road_0" arrivalPos="193.07" arrivalSpeed="23.82" duration="52.00" routeLength="633.55" waitingTime="1.00" waitingCount="1" stopTime="0.00" timeLoss="22.01" rerouteNo="0" devices="tripinfo_on_ramp_con.5" vType="con" speedFactor="1.10" vaporized=""/>
    <tripinfo id="main_def.16" depart="18.00" departLane="entry_1" departPos="20.44" departSpeed="27.21" departDelay="3.60" arrival="81.00" arrivalLane="end_main_road_1" arrivalPos="193.07" arrivalSpeed="22.08" duration="63.00" routeLength="1244.81" waitingTime="0.00" waitingCount="0" stopTime="0.00" timeLoss="18.34" rerouteNo="0" devices="tripinfo_main_def.16" vType="def" speedFactor="1.06" vaporized=""/>
    <tripinfo id="main_def.23" depart="24.00" departLane="entry_2" departPos="52.10" departSpeed="25.71" departDelay="3.30" arrival="81.00" arrivalLane="end_main_road_2" arrivalPos="193.07" arrivalSpeed="24.99" duration="57.00" routeLength="1213.15" waitingTime="0.00" waitingCount="0" stopTime="0.00" timeLoss="12.09" rerouteNo="0" devices="tripinfo_main_def.23" vType="def" speedFactor="1.02" vaporized=""/>
    <tripinfo id="main_con.10" depart="22.00" departLane="entry_1" departPos="101.65" departSpeed="21.87" departDelay="4.00" arrival="82.00" arrivalLane="end_main_road_1" arrivalPos="193.07" arrivalSpeed="23.06" duration="60.00" routeLength="1163.60" waitingTime="0.00" waitingCount="0" stopTime="0.00" timeLoss="13.89" rerouteNo="0" devices="tripinfo_main_con.10" vType="con" speedFactor="0.95" vaporized=""/>
    <tripinfo id="on_ramp_def.7" depart="28.00" departLane="on_ramp_0" departPos="37.26" departSpeed="10.52" departDelay="5.09" arrival="82.00" arrivalLane="end_main_road_0" arrivalPos="193.07" arrivalSpeed="22.51" duration="54.00" routeLength="631.73" waitingTime="0.00" waitingCount="0" stopTime="0.00" timeLoss="23.22" rerouteNo="0" devices="tripinfo_on_ramp_def.7" vType="def" speedFactor="1.07" vaporized=""/>
    <tripinfo id="main_def.22" depart="24.00" departLane="entry_1" departPos="3.60" departSpeed="23.77" departDelay="4.20" arrival="83.00" arrivalLane="end_main_road_2" arrivalPos="193.07" arrivalSpeed="23.53" duration="59.00" routeLength="1261.65" waitingTime="0.00" waitingCount="0" stopTime="0.00" timeLoss="7.09" rerouteNo="0" devices="tripinfo_main_def.22" vType="def" speedFactor="0.92" vaporized=""/>
    <tripinfo id="on_ramp_def.12" depart="42.00" departLane="on_ramp_0" departPos="161.54" departSpeed="7.81" departDelay="2.72" arrival="83.00" arrivalLane="end_main_road_0" arrivalPos="193.07" arrivalSpeed="22.44" duration="41.00" routeLength="507.45" waitingTime="0.00" waitingCount="0" stopTime="0.00" timeLoss="16.03" rerouteNo="0" devices="tripinfo_on_ramp_def.12" vType="def" speedFactor="0.94" vaporized=""/>
    <tripinfo id="main_def.24" depart="26.00" departLane="entry_1" departPos="137.64" departSpeed="24.25" departDelay="4.40" arrival="84.00" arrivalLane="end_main_road_1" arrivalPos="193.07" arrivalSpeed="23.85" duration="58.00" routeLength="1127.61" waitingTime="0.00" waitingCount="0" stopTime="0.00" timeLoss="10.72" rerouteNo="0" devices="tripinfo_main_def.24" vType="def" speedFactor="0.91" vaporized=""/>
    <tripinfo id="main_def.27" depart="30.00" departLane="entry_2" departPos="46.92" departSpeed="33.68" departDelay="5.70" arrival="84.00" arrivalLane="end_main_road_2" arrivalPos="193.07" arrivalSpeed="25.07" duration="54.00" routeLength="1218.33" waitingTime="0.00" waitingCount="0" stopTime="0.00" timeLoss="16.12" rerouteNo="0" devices="tripinfo_main_def.27" vType="def" speedFactor="1.21" vaporized=""/>
    <tripinfo id="main_def.17" depart="19.00" departLane="entry_0" departPos="45.05" departSpeed="27.52" departDelay="3.70" arrival="85.00" arrivalLane="end_main_road_0" arrivalPos="193.07" arrivalSpeed="23.47" duration="66.00" routeLength="1220.20" waitingTime="0.00" waitingCount="0" stopTime="0.00" timeLoss="22.61" rerouteNo="0" devices="tripinfo_main_def.17" vType="def" speedFactor="1.07" vaporized=""/>
    <tripinfo id="main_def.19" depart="22.00" departLane="entry_0" departPos="14.68" departSpeed="25.99" departDelay="4.90" arrival="85.00" arrivalLane="end_main_road_1" arrivalPos="193.07" arrivalSpeed="24.81" duration="63.00" routeLength="1250.57" waitingTime="0.00" waitingCount="0" stopTime="0.00" timeLoss="12.90" rerouteNo="0" devices="tripinfo_main_def.19" vType="def" speedFactor="0.94" vaporized=""/>
    <tripinfo id="main_def.25" depart="27.00" departLane="entry_0" departPos="7.76" departSpeed="29.26" departDelay="4.50" arrival="86.00" arrivalLane="end_main_road_2" arrivalPos="193.07" arrivalSpeed="26.23" duration="59.00" routeLength="1257.49" waitingTime="0.00" waitingCount="0" stopTime="0.00" timeLoss="13.75" rerouteNo="0" devices="tripinfo_main_def.25" vType="def" speedFactor="1.05" vaporized=""/>
    <tripinfo id="main_con.13" depart="27.00" departLane="entry_1" departPos="88.24" departSpeed="19.62" departDelay="3.60" arrival="87.00" arrivalLane="end_main_road_1" arrivalPos="193.07" arrivalSpeed="25.48" duration="60.00" routeLength="1177.01" waitingTime="0.00" waitingCount="0" stopTime="0.00" timeLoss="20.75" rerouteNo="0" devices="tripinfo_main_con.13" vType="con" speedFactor="1.14" vaporized=""/>
    <tripinfo id="main_def.28" depart="31.00" departLane="entry_0" departPos="7.07" departSpeed="26.14" departDelay="5.80" arrival="87.00" arrivalLane="end_main_road_2" arrivalPos="193.07" arrivalSpeed="24.87" duration="56.00" routeLength="1258.18" waitingTime="0.00" waitingCount="0" stopTime="0.00" timeLoss="5.98" rerouteNo="0" devices="tripinfo_main_def.28" vType="def" speedFactor="0.94" vaporized=""/>
    <tripinfo id="main_con.15" depart="31.00" departLane="entry_0" departPos="218.78" departSpeed="24.36" departDelay="4.00" arrival="87.00" arrivalLane="end_main_road_0" arrivalPos="193.07" arrivalSpeed="22.48" duration="56.00" routeLength="1046.47" waitingTime="0.00" waitingCount="0" stopTime="0.00" timeLoss="10.15" rerouteNo="0" devices="tripinfo_main_con.15" vType="con" speedFactor="0.88" vaporized=""/>
    <tripinfo id="main_con.12" depart="26.00" departLane="entry_0" departPos="27.54" departSpeed="31.45" departDelay="4.40" arrival="89.00" arrivalLane="end_main_road_1" arrivalPos="193.07" arrivalSpeed="26.90" duration="63.00" routeLength="1237.71" waitingTime="0.00" waitingCount="0" stopTime="0.00" timeLoss="21.54" rerouteNo="0" devices="tripinfo_main_con.12" vType="con" speedFactor="1.14" vaporized=""/>
    <tripinfo id="on_ramp_def.8" depart="35.00" departLane="on_ramp_0" departPos="18.09" departSpeed="15.24" departDelay="8.82" arrival="89.00" arrivalLane="end_main_road_0" arrivalPos="193.07" arrivalSpeed="21.85" duration="54.00" routeLength="650.90" waitingTime="0.00" waitingCount="0" stopTime="0.00" timeLoss="22.64" rerouteNo="0" devices="tripinfo_on_ramp_def.8" vType="def" speedFactor="1.10" vaporized=""/>
    <tripinfo id="main_def.32" depart="37.00" departLane="entry_2" departPos="61.23" departSpeed="30.37" departDelay="8.20" arrival="89.00" arrivalLane="end_main_road_2" arrivalPos="193.07" arrivalSpeed="25.45" duration="52.00" routeLength="1204.02" waitingTime="0.00" waitingCount="0" stopTime="0.00" timeLoss="10.35" rerouteNo="0" devices="tripinfo_main_def.32" vType="def" speedFactor="1.09" vaporized=""/>
    <tripinfo id="main_con.14" depart="31.00" departLane="entry_0" departPos="41.71" departSpeed="27.00" departDelay="5.80" arrival="90.00" arrivalLane="end_main_road_1" arrivalPos="193.07" arrivalSpeed="25.21" duration="59.00" routeLength="1223.54" waitingTime="0.00" waitingCount="0" stopTime="0.00" timeLoss="11.58" rerouteNo="0" devices="tripinfo_main_con.14" vType="con" speedFactor="0.97" vaporized=""/>
    <tripinfo id="on_ramp_def.10" depart="36.00" departLane="on_ramp_0" departPos="66.51" departSpeed="11.35" departDelay="3.27" arrival="90.00" arrivalLane="end_main_road_0" arrivalPos="193.07" arrivalSpeed="20.76" duration="54.00" routeLength="602.48" waitingTime="0.00" waitingCount="0" stopTime="0.00" timeLoss="16.79" rerouteNo="0" devices="tripinfo_on_ramp_def.10" vType="def" speedFactor="0.82" vaporized=""/>
    <tripinfo id="main_con.20" depart="42.00" departLane="entry_2" departPos="160.51" departSpeed="29.56" departDelay="6.00" arrival="91.00" arrivalLane="end_main_road_2" arrivalPos="193.07" arrivalSpeed="28.19" duration="49.00" routeLength="1104.74" waitingTime="0.00" waitingCount="0" stopTime="0.00" timeLoss="9.05" rerouteNo="0" devices="tripinfo_main_con.20" vType="con" speedFactor="1.06" vaporized=""/>