<?xml version="1.0" encoding="UTF-8"?>

<!-- generated on 2025-07-03 11:53:43 by Eclipse SUMO GUI Version 1.18.0
<configuration xmlns:xsi="http://www.w3.org/2001/XMLSchema-instance" xsi:noNamespaceSchemaLocation="http://sumo.dlr.de/xsd/sumoConfiguration.xsd">

    <input>
        <net-file value="env/custom_env/data/1ramp_1x3/1ramp_1x3.net.xml"/>
        <route-files value="env/custom_env/data/1ramp_1x3/1ramp_1x3.rou.xml"/>
        <additional-files value="env/custom_env/data/1ramp_1x3/1ramp_1x3.add.xml"/>
    </input>

    <output>
        <tripinfo-output value="env/custom_env/data/1ramp_1x3/tripinfo.xml"/>
    </output>

    <time>
        <begin value="0"/>
    </time>

    <processing>
        <time-to-teleport value="3600"/>
        <waiting-time-memory value="3600"/>
    </processing>

    <routing>
        <device.rerouting.probability value="0"/>
    </routing>

    <report>
        <verbose value="true"/>
        <no-warnings value="true"/>
        <log value="log"/>
        <duration-log.statistics value="true"/>
        <no-step-log value="true"/>
    </report>

    <traci_server>
        <remote-port value="60535"/>
    </traci_server>

    <random_number>
        <seed value="42"/>
    </random_number>

    <gui_only>
        <gui-settings-file value="env/custom_env/data/1ramp_1x3/gui-settings.cfg"/>
        <quit-on-end value="false"/>
        <start value="true"/>
        <delay value="0"/>
    </gui_only>

</configuration>
-->

<tripinfos xmlns:xsi="http://www.w3.org/2001/XMLSchema-instance" xsi:noNamespaceSchemaLocation="http://sumo.dlr.de/xsd/tripinfo_file.xsd">
    <tripinfo id="on_ramp_con.0" depart="0.00" departLane="on_ramp_0" departPos="194.36" departSpeed="16.14" departDelay="0.00" arrival="21.00" arrivalLane="end_main_road_0" arrivalPos="193.07" arrivalSpeed="30.47" duration="21.00" routeLength="474.63" waitingTime="0.00" waitingCount="0" stopTime="0.00" timeLoss="2.87" rerouteNo="0" devices="tripinfo_on_ramp_con.0" vType="con" speedFactor="1.16" vaporized=""/>
    <tripinfo id="off_ramp_def.0" depart="0.00" departLane="entry_0" departPos="175.93" departSpeed="30.13" departDelay="0.00" arrival="25.00" arrivalLane="off_ramp_0" arrivalPos="161.26" arrivalSpeed="12.83" duration="25.00" routeLength="420.55" waitingTime="0.00" waitingCount="0" stopTime="0.00" timeLoss="2.17" rerouteNo="0" devices="tripinfo_off_ramp_def.0" vType="def" speedFactor="1.08" vaporized=""/>
    <tripinfo id="off_ramp_con.0" depart="0.00" departLane="entry_0" departPos="165.17" departSpeed="25.86" departDelay="0.00" arrival="29.00" arrivalLane="off_ramp_0" arrivalPos="161.26" arrivalSpeed="12.43" duration="29.00" routeLength="431.31" waitingTime="0.00" waitingCount="0" stopTime="0.00" timeLoss="2.24" rerouteNo="0" devices="tripinfo_off_ramp_con.0" vType="con" speedFactor="0.93" vaporized=""/>
    <tripinfo id="on_ramp_con.1" depart="5.00" departLane="on_ramp_0" departPos="177.08" departSpeed="13.00" departDelay="0.50" arrival="36.00" arrivalLane="end_main_road_0" arrivalPos="193.07" arrivalSpeed="24.49" duration="31.00" routeLength="491.91" waitingTime="0.00" waitingCount="0" stopTime="0.00" timeLoss="6.34" rerouteNo="0" devices="tripinfo_on_ramp_con.1" vType="con" speedFactor="0.94" vaporized=""/>
    <tripinfo id="on_ramp_def.2" depart="7.00" departLane="on_ramp_0" departPos="144.76" departSpeed="13.91" departDelay="0.45" arrival="37.00" arrivalLane="end_main_road_1" arrivalPos="193.07" arrivalSpeed="26.47" duration="30.00" routeLength="524.23" waitingTime="0.00" waitingCount="0" stopTime="0.00" timeLoss="5.04" rerouteNo="0" devices="tripinfo_on_ramp_def.2" vType="def" speedFactor="1.00" vaporized=""/>
    <tripinfo id="main_def.0" depart="0.00" departLane="entry_1" departPos="179.73" departSpeed="29.77" departDelay="0.00" arrival="41.00" arrivalLane="end_main_road_1" arrivalPos="193.07" arrivalSpeed="27.54" duration="41.00" routeLength="1085.52" waitingTime="0.00" waitingCount="0" stopTime="0.00" timeLoss="2.13" rerouteNo="0" devices="tripinfo_main_def.0" vType="def" speedFactor="1.07" vaporized=""/>
    <tripinfo id="main_def.1" depart="1.00" departLane="entry_2" departPos="135.08" departSpeed="28.59" departDelay="0.10" arrival="45.00" arrivalLane="end_main_road_2" arrivalPos="193.07" arrivalSpeed="26.44" duration="44.00" routeLength="1130.17" waitingTime="0.00" waitingCount="0" stopTime="0.00" timeLoss="2.22" rerouteNo="0" devices="tripinfo_main_def.1" vType="def" speedFactor="1.03" vaporized=""/>
    <tripinfo id="main_con.1" depart="2.00" departLane="entry_1" departPos="134.67" departSpeed="31.44" departDelay="0.20" arrival="46.00" arrivalLane="end_main_road_1" arrivalPos="193.07" arrivalSpeed="29.58" duration="44.00" routeLength="1130.58" waitingTime="0.00" waitingCount="0" stopTime="0.00" timeLoss="6.26" rerouteNo="0" devices="tripinfo_main_con.1" vType="con" speedFactor="1.13" vaporized=""/>
    <tripinfo id="on_ramp_def.0" depart="0.00" departLane="on_ramp_0" departPos="37.50" departSpeed="12.24" departDelay="0.00" arrival="47.00" arrivalLane="end_main_road_0" arrivalPos="193.07" arrivalSpeed="24.18" duration="47.00" routeLength="631.49" waitingTime="1.00" waitingCount="1" stopTime="0.00" timeLoss="10.14" rerouteNo="0" devices="tripinfo_on_ramp_def.0" vType="def" speedFactor="0.88" vaporized=""/>
    <tripinfo id="main_def.5" depart="5.00" departLane="entry_2" departPos="103.62" departSpeed="32.31" departDelay="0.50" arrival="47.00" arrivalLane="end_main_road_2" arrivalPos="193.07" arrivalSpeed="27.45" duration="42.00" routeLength="1161.63" waitingTime="0.00" waitingCount="0" stopTime="0.00" timeLoss="3.70" rerouteNo="0" devices="tripinfo_main_def.5" vType="def" speedFactor="1.16" vaporized=""/>
    <tripinfo id="main_con.0" depart="0.00" departLane="entry_0" departPos="84.51" departSpeed="26.33" departDelay="0.00" arrival="50.00" arrivalLane="end_main_road_0" arrivalPos="193.07" arrivalSpeed="24.37" duration="50.00" routeLength="1180.74" waitingTime="0.00" waitingCount="0" stopTime="0.00" timeLoss="2.39" rerouteNo="0" devices="tripinfo_main_con.0" vType="con" speedFactor="0.95" vaporized=""/>
    <tripinfo id="main_con.2" depart="4.00" departLane="entry_2" departPos="35.20" departSpeed="27.80" departDelay="0.40" arrival="53.00" arrivalLane="end_main_road_2" arrivalPos="193.07" arrivalSpeed="25.92" duration="49.00" routeLength="1230.05" waitingTime="0.00" waitingCount="0" stopTime="0.00" timeLoss="2.44" rerouteNo="0" devices="tripinfo_main_con.2" vType="con" speedFactor="1.00" vaporized=""/>
    <tripinfo id="main_con.4" depart="9.00" departLane="entry_2" departPos="4.64" departSpeed="34.44" departDelay="1.80" arrival="54.00" arrivalLane="end_main_road_2" arrivalPos="193.07" arrivalSpeed="28.91" duration="45.00" routeLength="1260.61" waitingTime="0.00" waitingCount="0" stopTime="0.00" timeLoss="6.84" rerouteNo="0" devices="tripinfo_main_con.4" vType="con" speedFactor="1.24" vaporized=""/>
    <tripinfo id="off_ramp_con.1" depart="19.00" departLane="entry_0" departPos="10.48" departSpeed="27.50" departDelay="1.00" arrival="56.00" arrivalLane="off_ramp_0" arrivalPos="161.26" arrivalSpeed="13.39" duration="37.00" routeLength="586.00" waitingTime="0.00" waitingCount="0" stopTime="0.00" timeLoss="6.30" rerouteNo="0" devices="tripinfo_off_ramp_con.1" vType="con" speedFactor="0.99" vaporized=""/>
    <tripinfo id="main_def.4" depart="4.00" departLane="entry_0" departPos="22.56" departSpeed="27.62" departDelay="0.40" arrival="57.00" arrivalLane="end_main_road_2" arrivalPos="193.07" arrivalSpeed="27.13" duration="53.00" routeLength="1242.69" waitingTime="0.00" waitingCount="0" stopTime="0.00" timeLoss="5.66" rerouteNo="0" devices="tripinfo_main_def.4" vType="def" speedFactor="0.99" vaporized=""/>
    <tripinfo id="main_def.2" depart="2.00" departLane="entry_1" departPos="35.20" departSpeed="24.51" departDelay="0.20" arrival="58.00" arrivalLane="end_main_road_1" arrivalPos="193.07" arrivalSpeed="22.34" duration="56.00" routeLength="1230.05" waitingTime="0.00" waitingCount="0" stopTime="0.00" timeLoss="3.25" rerouteNo="0" devices="tripinfo_main_def.2" vType="def" speedFactor="0.88" vaporized=""/>
    <tripinfo id="main_def.10" depart="12.00" departLane="entry_2" departPos="41.38" departSpeed="31.14" departDelay="3.00" arrival="58.00" arrivalLane="end_main_road_2" arrivalPos="193.07" arrivalSpeed="29.30" duration="46.00" routeLength="1223.87" waitingTime="0.00" waitingCount="0" stopTime="0.00" timeLoss="4.90" rerouteNo="0" devices="tripinfo_main_def.10" vType="def" speedFactor="1.12" vaporized=""/>
    <tripinfo id="on_ramp_def.1" depart="4.00" departLane="on_ramp_0" departPos="11.87" departSpeed="11.32" departDelay="0.73" arrival="59.00" arrivalLane="end_main_road_0" arrivalPos="193.07" arrivalSpeed="22.57" duration="55.00" routeLength="657.12" waitingTime="4.00" waitingCount="1" stopTime="0.00" timeLoss="12.33" rerouteNo="0" devices="tripinfo_on_ramp_def.1" vType="def" speedFactor="0.82" vaporized=""/>
    <tripinfo id="main_con.3" depart="6.00" departLane="entry_1" departPos="75.30" departSpeed="27.51" departDelay="0.60" arrival="59.00" arrivalLane="end_main_road_1" arrivalPos="193.07" arrivalSpeed="24.91" duration="53.00" routeLength="1189.95" waitingTime="0.00" waitingCount="0" stopTime="0.00" timeLoss="7.86" rerouteNo="0" devices="tripinfo_main_con.3" vType="con" speedFactor="0.99" vaporized=""/>
    <tripinfo id="main_def.3" depart="3.00" departLane="entry_0" departPos="100.60" departSpeed="23.46" departDelay="0.30" arrival="60.00" arrivalLane="end_main_road_0" arrivalPos="193.07" arrivalSpeed="23.14" duration="57.00" routeLength="1164.65" waitingTime="0.00" waitingCount="0" stopTime="0.00" timeLoss="4.84" rerouteNo="0" devices="tripinfo_main_def.3" vType="def" speedFactor="0.84" vaporized=""/>
    <tripinfo id="main_def.13" depart="15.00" departLane="entry_2" departPos="118.41" departSpeed="27.27" departDelay="3.30" arrival="60.00" arrivalLane="end_main_road_2" arrivalPos="193.07" arrivalSpeed="29.90" duration="45.00" routeLength="1146.84" waitingTime="0.00" waitingCount="0" stopTime="0.00" timeLoss="4.31" rerouteNo="0" devices="tripinfo_main_def.13" vType="def" speedFactor="1.08" vaporized=""/>
    <tripinfo id="main_con.8" depart="16.00" departLane="entry_0" departPos="82.67" departSpeed="31.19" departDelay="1.60" arrival="61.00" arrivalLane="end_main_road_2" arrivalPos="193.07" arrivalSpeed="31.83" duration="45.00" routeLength="1182.58" waitingTime="0.00" waitingCount="0" stopTime="0.00" timeLoss="6.15" rerouteNo="0" devices="tripinfo_main_con.8" vType="con" speedFactor="1.15" vaporized=""/>
    <tripinfo id="on_ramp_con.2" depart="10.00" departLane="on_ramp_0" departPos="43.41" departSpeed="13.47" departDelay="1.00" arrival="62.00" arrivalLane="end_main_road_0" arrivalPos="193.07" arrivalSpeed="23.30" duration="52.00" routeLength="625.58" waitingTime="4.00" waitingCount="1" stopTime="0.00" timeLoss="18.50" rerouteNo="0" devices="tripinfo_on_ramp_con.2" vType="con" speedFactor="0.97" vaporized=""/>
    <tripinfo id="main_def.7" depart="7.00" departLane="entry_1" departPos="32.24" departSpeed="24.35" departDelay="0.70" arrival="63.00" arrivalLane="end_main_road_1" arrivalPos="193.07" arrivalSpeed="22.77" duration="56.00" routeLength="1233.01" waitingTime="0.00" waitingCount="0" stopTime="0.00" timeLoss="3.10" rerouteNo="0" devices="tripinfo_main_def.7" vType="def" speedFactor="0.88" vaporized=""/>
    <tripinfo id="main_con.11" depart="21.00" departLane="entry_2" departPos="214.11" departSpeed="27.39" departDelay="1.20" arrival="63.00" arrivalLane="end_main_road_2" arrivalPos="193.07" arrivalSpeed="28.24" duration="42.00" routeLength="1051.14" waitingTime="0.00" waitingCount="0" stopTime="0.00" timeLoss="3.15" rerouteNo="0" devices="tripinfo_main_con.11" vType="con" speedFactor="1.03" vaporized=""/>
    <tripinfo id="main_def.6" depart="6.00" departLane="entry_0" departPos="135.64" departSpeed="21.72" departDelay="0.60" arrival="64.00" arrivalLane="end_main_road_0" arrivalPos="193.07" arrivalSpeed="19.06" duration="58.00" routeLength="1129.61" waitingTime="0.00" waitingCount="0" stopTime="0.00" timeLoss="19.86" rerouteNo="0" devices="tripinfo_main_def.6" vType="def" speedFactor="1.13" vaporized=""/>
    <tripinfo id="main_con.5" depart="10.00" departLane="entry_0" departPos="187.83" departSpeed="23.10" departDelay="1.00" arrival="65.00" arrivalLane="end_main_road_0" arrivalPos="193.07" arrivalSpeed="20.69" duration="55.00" routeLength="1077.42" waitingTime="0.00" waitingCount="0" stopTime="0.00" timeLoss="8.51" rerouteNo="0" devices="tripinfo_main_con.5" vType="con" speedFactor="0.87" vaporized=""/>
    <tripinfo id="main_def.9" depart="11.00" departLane="entry_0" departPos="41.03" departSpeed="26.30" departDelay="2.90" arrival="65.00" arrivalLane="end_main_road_1" arrivalPos="193.07" arrivalSpeed="27.80" duration="54.00" routeLength="1224.22" waitingTime="0.00" waitingCount="0" stopTime="0.00" timeLoss="9.55" rerouteNo="0" devices="tripinfo_main_def.9" vType="def" speedFactor="1.05" vaporized=""/>
    <tripinfo id="main_def.23" depart="21.00" departLane="entry_1" departPos="217.89" departSpeed="23.10" departDelay="0.30" arrival="66.00" arrivalLane="end_main_road_2" arrivalPos="193.07" arrivalSpeed="26.92" duration="45.00" routeLength="1047.36" waitingTime="0.00" waitingCount="0" stopTime="0.00" timeLoss="5.41" rerouteNo="0" devices="tripinfo_main_def.23" vType="def" speedFactor="1.02" vaporized=""/>
    <tripinfo id="main_def.11" depart="12.00" departLane="entry_0" departPos="139.33" departSpeed="29.94" departDelay="2.10" arrival="67.00" arrivalLane="end_main_road_0" arrivalPos="193.07" arrivalSpeed="20.34" duration="55.00" routeLength="1125.92" waitingTime="0.00" waitingCount="0" stopTime="0.00" timeLoss="15.54" rerouteNo="0" devices="tripinfo_main_def.11" vType="def" speedFactor="1.08" vaporized=""/>
    <tripinfo id="main_con.9" depart="19.00" departLane="entry_0" departPos="221.86" departSpeed="20.15" departDelay="2.80" arrival="67.00" arrivalLane="end_main_road_1" arrivalPos="193.07" arrivalSpeed="28.60" duration="48.00" routeLength="1043.39" waitingTime="0.00" waitingCount="0" stopTime="0.00" timeLoss="10.22" rerouteNo="0" devices="tripinfo_main_con.9" vType="con" speedFactor="1.06" vaporized=""/>
    <tripinfo id="main_def.16" depart="17.00" departLane="entry_1" departPos="20.44" departSpeed="25.51" departDelay="2.60" arrival="68.00" arrivalLane="end_main_road_2" arrivalPos="193.07" arrivalSpeed="28.93" duration="51.00" routeLength="1244.81" waitingTime="0.00" waitingCount="0" stopTime="0.00" timeLoss="6.96" rerouteNo="0" devices="tripinfo_main_def.16" vType="def" speedFactor="1.06" vaporized=""/>
    <tripinfo id="main_def.8" depart="9.00" departLane="entry_0" departPos="12.73" departSpeed="30.42" departDelay="1.80" arrival="69.00" arrivalLane="end_main_road_0" arrivalPos="193.07" arrivalSpeed="23.95" duration="60.00" routeLength="1252.52" waitingTime="0.00" waitingCount="0" stopTime="0.00" timeLoss="16.92" rerouteNo="0" devices="tripinfo_main_def.8" vType="def" speedFactor="1.10" vaporized=""/>
    <tripinfo id="main_def.18" depart="19.00" departLane="entry_0" departPos="133.67" departSpeed="25.45" departDelay="2.80" arrival="70.00" arrivalLane="end_main_road_1" arrivalPos="193.07" arrivalSpeed="24.73" duration="51.00" routeLength="1131.58" waitingTime="0.00" waitingCount="0" stopTime="0.00" timeLoss="3.54" rerouteNo="0" devices="tripinfo_main_def.18" vType="def" speedFactor="0.92" vaporized=""/>
    <tripinfo id="off_ramp_con.2" depart="40.00" departLane="entry_0" departPos="89.10" departSpeed="25.83" departDelay="4.00" arrival="70.00" arrivalLane="off_ramp_0" arrivalPos="161.26" arrivalSpeed="14.76" duration="30.00" routeLength="507.38" waitingTime="0.00" waitingCount="0" stopTime="0.00" timeLoss="4.59" rerouteNo="0" devices="tripinfo_off_ramp_con.2" vType="con" speedFactor="1.09" vaporized=""/>
    <tripinfo id="on_ramp_def.3" depart="10.00" departLane="on_ramp_0" departPos="0.16" departSpeed="13.05" departDelay="0.18" arrival="71.00" arrivalLane="end_main_road_0" arrivalPos="193.07" arrivalSpeed="25.31" duration="61.00" routeLength="668.83" waitingTime="4.00" waitingCount="2" stopTime="0.00" timeLoss="23.19" rerouteNo="0" devices="tripinfo_on_ramp_def.3" vType="def" speedFactor="0.94" vaporized=""/>
    <tripinfo id="on_ramp_con.3" depart="14.00" departLane="on_ramp_0" departPos="4.71" departSpeed="14.03" departDelay="0.50" arrival="71.00" arrivalLane="end_main_road_1" arrivalPos="193.07" arrivalSpeed="27.01" duration="57.00" routeLength="664.28" waitingTime="0.00" waitingCount="0" stopTime="0.00" timeLoss="22.33" rerouteNo="0" devices="tripinfo_on_ramp_con.3" vType="con" speedFactor="1.01" vaporized=""/>
    <tripinfo id="main_con.6" depart="14.00" departLane="entry_0" departPos="118.41" departSpeed="24.35" departDelay="3.20" arrival="73.00" arrivalLane="end_main_road_0" arrivalPos="193.07" arrivalSpeed="24.89" duration="59.00" routeLength="1146.84" waitingTime="0.00" waitingCount="0" stopTime="0.00" timeLoss="10.78" rerouteNo="0" devices="tripinfo_main_con.6" vType="con" speedFactor="0.91" vaporized=""/>
    <tripinfo id="main_def.19" depart="21.00" departLane="entry_2" departPos="101.65" departSpeed="23.15" departDelay="3.90" arrival="74.00" arrivalLane="end_main_road_2" arrivalPos="193.07" arrivalSpeed="25.36" duration="53.00" routeLength="1163.60" waitingTime="0.00" waitingCount="0" stopTime="0.00" timeLoss="5.38" rerouteNo="0" devices="tripinfo_main_def.19" vType="def" speedFactor="0.94" vaporized=""/>
    <tripinfo id="main_def.15" depart="16.00" departLane="entry_2" departPos="65.92" departSpeed="22.87" departDelay="2.50" arrival="75.00" arrivalLane="end_main_road_1" arrivalPos="193.07" arrivalSpeed="20.64" duration="59.00" routeLength="1199.33" waitingTime="0.00" waitingCount="0" stopTime="0.00" timeLoss="3.38" rerouteNo="0" devices="tripinfo_main_def.15" vType="def" speedFactor="0.82" vaporized=""/>
    <tripinfo id="main_con.10" depart="21.00" departLane="entry_1" departPos="38.48" departSpeed="26.50" departDelay="3.00" arrival="76.00" arrivalLane="end_main_road_2" arrivalPos="193.07" arrivalSpeed="25.24" duration="55.00" routeLength="1226.77" waitingTime="0.00" waitingCount="0" stopTime="0.00" timeLoss="5.93" rerouteNo="0" devices="tripinfo_main_con.10" vType="con" speedFactor="0.95" vaporized=""/>
    <tripinfo id="main_def.22" depart="21.00" departLane="entry_0" departPos="212.60" departSpeed="25.66" departDelay="1.20" arrival="76.00" arrivalLane="end_main_road_0" arrivalPos="193.07" arrivalSpeed="23.56" duration="55.00" routeLength="1052.65" waitingTime="0.00" waitingCount="0" stopTime="0.00" timeLoss="11.44" rerouteNo="0" devices="tripinfo_main_def.22" vType="def" speedFactor="0.92" vaporized=""/>
    <tripinfo id="main_def.12" depart="14.00" departLane="entry_1" departPos="1.59" departSpeed="27.72" departDelay="3.20" arrival="77.00" arrivalLane="end_main_road_1" arrivalPos="193.07" arrivalSpeed="24.76" duration="63.00" routeLength="1263.66" waitingTime="0.00" waitingCount="0" stopTime="0.00" timeLoss="14.63" rerouteNo="0" devices="tripinfo_main_def.12" vType="def" speedFactor="1.00" vaporized=""/>
    <tripinfo id="main_def.25" depart="24.00" departLane="entry_1" departPos="154.17" departSpeed="19.52" departDelay="1.50" arrival="77.00" arrivalLane="end_main_road_2" arrivalPos="193.07" arrivalSpeed="24.77" duration="53.00" routeLength="1111.08" waitingTime="0.00" waitingCount="0" stopTime="0.00" timeLoss="12.95" rerouteNo="0" devices="tripinfo_main_def.25" vType="def" speedFactor="1.05" vaporized=""/>
    <tripinfo id="main_con.7" depart="16.00" departLane="entry_0" departPos="31.48" departSpeed="26.17" departDelay="3.40" arrival="78.00" arrivalLane="end_main_road_0" arrivalPos="193.07" arrivalSpeed="25.38" duration="62.00" routeLength="1233.77" waitingTime="0.00" waitingCount="0" stopTime="0.00" timeLoss="12.00" rerouteNo="0" devices="tripinfo_main_con.7" vType="con" speedFactor="0.94" vaporized=""/>
    <tripinfo id="main_def.14" depart="16.00" departLane="entry_1" departPos="10.53" departSpeed="29.19" departDelay="3.40" arrival="78.00" arrivalLane="end_main_road_1" arrivalPos="193.07" arrivalSpeed="24.59" duration="62.00" routeLength="1254.72" waitingTime="0.00" waitingCount="0" stopTime="0.00" timeLoss="18.21" rerouteNo="0" devices="tripinfo_main_def.14" vType="def" speedFactor="1.08" vaporized=""/>
    <tripinfo id="off_ramp_def.1" depart="40.00" departLane="entry_0" departPos="3.18" departSpeed="20.33" departDelay="2.11" arrival="78.00" arrivalLane="off_ramp_0" arrivalPos="161.26" arrivalSpeed="13.65" duration="38.00" routeLength="593.30" waitingTime="0.00" waitingCount="0" stopTime="0.00" timeLoss="8.26" rerouteNo="0" devices="tripinfo_off_ramp_def.1" vType="def" speedFactor="1.04" vaporized=""/>
    <tripinfo id="main_def.17" depart="18.00" departLane="entry_0" departPos="45.05" departSpeed="25.59" departDelay="2.70" arrival="79.00" arrivalLane="end_main_road_0" arrivalPos="193.07" arrivalSpeed="25.59" duration="61.00" routeLength="1220.20" waitingTime="0.00" waitingCount="0" stopTime="0.00" timeLoss="18.04" rerouteNo="0" devices="tripinfo_main_def.17" vType="def" speedFactor="1.07" vaporized=""/>
    <tripinfo id="main_def.24" depart="23.00" departLane="entry_1" departPos="154.39" departSpeed="21.02" departDelay="1.40" arrival="80.00" arrivalLane="end_main_road_1" arrivalPos="193.07" arrivalSpeed="23.11" duration="57.00" routeLength="1110.86" waitingTime="0.00" waitingCount="0" stopTime="0.00" timeLoss="10.38" rerouteNo="0" devices="tripinfo_main_def.24" vType="def" speedFactor="0.91" vaporized=""/>
    <tripinfo id="on_ramp_def.4" depart="23.00" departLane="on_ramp_0" departPos="78.79" departSpeed="16.01" departDelay="9.91" arrival="82.00" arrivalLane="end_main_road_1" arrivalPos="193.07" arrivalSpeed="25.92" duration="59.00" routeLength="590.20" waitingTime="0.00" waitingCount="0" stopTime="0.00" timeLoss="32.79" rerouteNo="0" devices="tripinfo_on_ramp_def.4" vType="def" speedFactor="1.15" vaporized=""/>
    <tripinfo id="main_def.21" depart="21.00" departLane="entry_2" departPos="2.99" departSpeed="23.54" departDelay="2.10" arrival="82.00" arrivalLane="end_main_road_2" arrivalPos="193.07" arrivalSpeed="22.53" duration="61.00" routeLength="1262.26" waitingTime="0.00" waitingCount="0" stopTime="0.00" timeLoss="4.87" rerouteNo="0" devices="tripinfo_main_def.21" vType="def" speedFactor="0.85" vaporized=""/>
    <tripinfo id="on_ramp_def.6" depart="25.00" departLane="on_ramp_0" departPos="101.23" departSpeed="12.11" departDelay="5.36" arrival="83.00" arrivalLane="end_main_road_0" arrivalPos="193.07" arrivalSpeed="27.02" duration="58.00" routeLength="567.76" waitingTime="0.00" waitingCount="0" stopTime="0.00" timeLoss="30.89" rerouteNo="0" devices="tripinfo_on_ramp_def.6" vType="def" speedFactor="1.04" vaporized=""/>
    <tripinfo id="main_def.26" depart="24.00" departLane="entry_1" departPos="137.64" departSpeed="17.28" departDelay="0.60" arrival="84.00" arrivalLane="end_main_road_1" arrivalPos="193.07" arrivalSpeed="22.91" duration="60.00" routeLength="1127.61" waitingTime="0.00" waitingCount="0" stopTime="0.00" timeLoss="10.74" rerouteNo="0" devices="tripinfo_main_def.26" vType="def" speedFactor="0.87" vaporized=""/>
    <tripinfo id="main_con.14" depart="26.00" departLane="entry_2" departPos="88.24" departSpeed="21.74" departDelay="0.80" arrival="84.00" arrivalLane="end_main_road_2" arrivalPos="193.07" arrivalSpeed="24.62" duration="58.00" routeLength="1177.01" waitingTime="0.00" waitingCount="0" stopTime="0.00" timeLoss="11.68" rerouteNo="0" devices="tripinfo_main_con.14" vType="con" speedFactor="0.97" vaporized=""/>
    <tripinfo id="main_con.13" depart="24.00" departLane="entry_0" departPos="27.54" departSpeed="30.19" departDelay="0.60" arrival="85.00" arrivalLane="end_main_road_2" arrivalPos="193.07" arrivalSpeed="24.94" duration="61.00" routeLength="1237.71" waitingTime="0.00" waitingCount="0" stopTime="0.00" timeLoss="19.96" rerouteNo="0" devices="tripinfo_main_con.13" vType="con" speedFactor="1.14" vaporized=""/>
    <tripinfo id="main_def.20" depart="21.00" departLane="entry_1" departPos="14.68" departSpeed="22.98" departDelay="3.00" arrival="86.00" arrivalLane="end_main_road_1" arrivalPos="193.07" arrivalSpeed="21.59" duration="65.00" routeLength="1250.57" waitingTime="0.00" waitingCount="0" stopTime="0.00" timeLoss="7.54" rerouteNo="0" devices="tripinfo_main_def.20" vType="def" speedFactor="0.83" vaporized=""/>
    <tripinfo id="main_con.12" depart="23.00" departLane="entry_0" departPos="52.10" departSpeed="29.28" departDelay="1.40" arrival="87.00" arrivalLane="end_main_road_0" arrivalPos="193.07" arrivalSpeed="20.01" duration="64.00" routeLength="1213.15" waitingTime="0.00" waitingCount="0" stopTime="0.00" timeLoss="23.45" rerouteNo="0" devices="tripinfo_main_con.12" vType="con" speedFactor="1.14" vaporized=""/>
    <tripinfo id="main_def.27" depart="25.00" departLane="entry_0" departPos="7.76" departSpeed="30.13" departDelay="0.70" arrival="87.00" arrivalLane="end_main_road_2" arrivalPos="193.07" arrivalSpeed="25.67" duration="62.00" routeLength="1257.49" waitingTime="0.00" waitingCount="0" stopTime="0.00" timeLoss="22.63" rerouteNo="0" devices="tripinfo_main_def.27" vType="def" speedFactor="1.21" vaporized=""/>
    <tripinfo id="main_def.28" depart="28.00" departLane="entry_0" departPos="70.33" departSpeed="26.14" departDelay="2.80" arrival="87.00" arrivalLane="end_main_road_1" arrivalPos="193.07" arrivalSpeed="22.51" duration="59.00" routeLength="1194.92" waitingTime="0.00" waitingCount="0" stopTime="0.00" timeLoss="11.04" rerouteNo="0" devices="tripinfo_main_def.28" vType="def" speedFactor="0.94" vaporized=""/>
    <tripinfo id="main_def.29" depart="30.00" departLane="entry_1" departPos="41.71" departSpeed="24.33" departDelay="3.90" arrival="88.00" arrivalLane="end_main_road_2" arrivalPos="193.07" arrivalSpeed="23.27" duration="58.00" routeLength="1223.54" waitingTime="0.00" waitingCount="0" stopTime="0.00" timeLoss="5.51" rerouteNo="0" devices="tripinfo_main_def.29" vType="def" speedFactor="0.88" vaporized=""/>
    <tripinfo id="main_con.16" depart="34.00" departLane="entry_1" departPos="208.01" departSpeed="24.09" departDelay="5.20" arrival="89.00" arrivalLane="end_main_road_1" arrivalPos="193.07" arrivalSpeed="23.03" duration="55.00" routeLength="1057.24" waitingTime="0.00" waitingCount="0" stopTime="0.00" timeLoss="16.78" rerouteNo="0" devices="tripinfo_main_con.16" vType="con" speedFactor="1.05" vaporized=""/>
    <tripinfo id="main_def.30" depart="30.00" departLane="entry_0" departPos="7.07" departSpeed="28.73" departDelay="3.00" arrival="90.00" arrivalLane="end_main_road_2" arrivalPos="193.07" arrivalSpeed="26.05" duration="60.00" routeLength="1258.18" waitingTime="0.00" waitingCount="0" stopTime="0.00" timeLoss="18.84" rerouteNo="0" devices="tripinfo_main_def.30" vType="def" speedFactor="1.16" vaporized=""/>
    <tripinfo id="main_def.34" depart="35.00" departLane="entry_0" departPos="216.88" departSpeed="19.94" departDelay="4.40" arrival="90.00" arrivalLane="end_main_road_0" arrivalPos="193.07" arrivalSpeed="23.35" duration="55.00" routeLength="1048.37" waitingTime="0.00" waitingCount="0" stopTime="0.00" timeLoss="15.79" rerouteNo="0" devices="tripinfo_main_def.34" vType="def" speedFactor="1.02" vaporized=""/>
    <tripinfo id="main_def.31" depart="31.00" departLane="entry_1" departPos="101.48" departSpeed="26.24" departDelay="3.10" arrival="91.00" arrivalLane="end_main_road_1" arrivalPos="193.07" arrivalSpeed="22.71" duration="60.00" routeLength="1163.77" waitingTime="0.00" waitingCount="0" stopTime="0.00" timeLoss="13.30" rerouteNo="0" devices="tripinfo_main_def.31" vType="def" speedFactor="0.94" vaporized=""/>
    <tripinfo id="on_ramp_def.5" depart="23.00" departLane="on_ramp_0" departPos="62.28" departSpeed="11.94" departDelay="6.64" arrival="92.00" arrivalLane="end_main_road_0" arrivalPos="193.07" arrivalSpeed="21.85" duration="69.00" routeLength="606.71" waitingTime="0.00" waitingCount="0" stopTime="0.00" timeLoss="32.98" rerouteNo="0" devices="tripinfo_on_ramp_def.5" vType="def" speedFactor="0.86" vaporized=""/>
    <tripinfo id="main_def.33" depart="34.00" departLane="entry_1" departPos="19.97" departSpeed="28.75" departDelay="4.30" arrival="92.00" arrivalLane="end_main_road_2" arrivalPos="193.07" arrivalSpeed="26.44" duration="58.00" routeLength="1245.28" waitingTime="0.00" waitingCount="0" stopTime="0.00" timeLoss="12.20" rerouteNo="0" devices="tripinfo_main_def.33" vType="def" speedFactor="1.04" vaporized=""/>
    <tripinfo id="main_def.32" depart="34.00" departLane="entry_0" departPos="73.68" departSpeed="30.37" departDelay="5.20" arrival="93.00" arrivalLane="end_main_road_1" arrivalPos="193.07" arrivalSpeed="24.38" duration="59.00" routeLength="1191.57" waitingTime="0.00" waitingCount="0" stopTime="0.00" timeLoss="17.56" rerouteNo="0" devices="tripinfo_main_def.32" vType="def" speedFactor="1.09" vaporized=""/>
    <tripinfo id="main_con.15" depart="29.00" departLane="entry_0" departPos="46.92" departSpeed="24.36" departDelay="2.00" arrival="94.00" arrivalLane="end_main_road_0" arrivalPos="193.07" arrivalSpeed="23.05" duration="65.00" routeLength="1218.33" waitingTime="0.00" waitingCount="0" stopTime="0.00" timeLoss="12.09" rerouteNo="0" devices="tripinfo_main_con.15" vType="con" speedFactor="0.88" vaporized=""/>
    <tripinfo id="main_con.19" depart="38.00" departLane="entry_2" departPos="122.45" departSpeed="21.69" departDelay="3.80" arrival="94.00" arrivalLane="end_main_road_2" arrivalPos="193.07" arrivalSpeed="22.59" duration="56.00" routeLength="1142.80" waitingTime="0.00" waitingCount="0" stopTime="0.00" timeLoss="5.14" rerouteNo="0" devices="tripinfo_main_con.19" vType="con" speedFactor="0.86" vaporized=""/>